       N       E                     dE             d eps       ncg     rms          rms(c)
DAV:   1     0.735963369969E+02    0.73596E+02   -0.22075E+03    16   0.819E+02
DAV:   2     0.122635707744E+02   -0.61333E+02   -0.61030E+02    32   0.108E+02
DAV:   3    -0.145463660347E+02   -0.26810E+02   -0.26810E+02    16   0.899E+01
DAV:   4    -0.163568377232E+02   -0.18105E+01   -0.18105E+01    16   0.311E+01
DAV:   5    -0.163697681542E+02   -0.12930E-01   -0.12930E-01    24   0.286E+00    0.799E+00
DAV:   6    -0.144043060470E+02    0.19655E+01   -0.97973E+00    16   0.227E+01    0.306E+00
DAV:   7    -0.142917626994E+02    0.11254E+00   -0.15032E-01    24   0.305E+00    0.191E+00
DAV:   8    -0.142025071180E+02    0.89256E-01   -0.72109E-02    24   0.275E+00    0.213E-01
DAV:   9    -0.142060422726E+02   -0.35352E-02   -0.42832E-03    24   0.419E-01    0.139E-01
DAV:  10    -0.142148144825E+02   -0.87722E-02   -0.40785E-03    16   0.550E-01    0.650E-02
DAV:  11    -0.142221602368E+02   -0.73458E-02   -0.49197E-03    16   0.389E-01    0.949E-02
DAV:  12    -0.142230157390E+02   -0.85550E-03   -0.12135E-03    32   0.233E-01    0.201E-02
DAV:  13    -0.142242283182E+02   -0.12126E-02   -0.21125E-04    24   0.101E-01    0.139E-02
DAV:  14    -0.142243012728E+02   -0.72955E-04   -0.12341E-05    32   0.300E-02
   1 F= -.14224301E+02 E0= -.14224301E+02  d E =-.142243E+02
       N       E                     dE             d eps       ncg     rms          rms(c)
DAV:   1    -0.142207473041E+02    0.34810E-02   -0.15819E+00    16   0.113E+01    0.825E-01
DAV:   2    -0.142086524103E+02    0.12095E-01   -0.78140E-02    32   0.210E+00    0.303E-01
DAV:   3    -0.142081266830E+02    0.52573E-03   -0.11680E-03    24   0.344E-01    0.155E-01
DAV:   4    -0.142080338879E+02    0.92795E-04   -0.58430E-04    24   0.259E-01
   2 F= -.14208034E+02 E0= -.14208034E+02  d E =0.162674E-01
       N       E                     dE             d eps       ncg     rms          rms(c)
DAV:   1    -0.142424801259E+02   -0.34353E-01   -0.51538E-01    16   0.644E+00    0.438E-01
DAV:   2    -0.142389984169E+02    0.34817E-02   -0.20696E-02    24   0.112E+00    0.175E-01
DAV:   3    -0.142388158751E+02    0.18254E-03   -0.83731E-04    16   0.257E-01    0.841E-02
DAV:   4    -0.142388102689E+02    0.56062E-05   -0.23007E-04    16   0.155E-01
   3 F= -.14238810E+02 E0= -.14238810E+02  d E =-.307764E-01
       N       E                     dE             d eps       ncg     rms          rms(c)
DAV:   1    -0.142389713679E+02   -0.15549E-03   -0.32156E-03    32   0.557E-01    0.299E-02
DAV:   2    -0.142389637269E+02    0.76409E-05   -0.99286E-05    24   0.819E-02
   4 F= -.14238964E+02 E0= -.14238964E+02  d E =-.153458E-03
