<?xml version="1.0" encoding="ISO-8859-1"?>
<modeling>
 <generator>
  <i name="program" type="string">vasp </i>
  <i name="version" type="string">6.3.2  </i>
  <i name="subversion" type="string">27Jun22 (build Oct 19 2022 15:35:57) gamma-only                       parallel </i>
  <i name="platform" type="string">LinuxIFC </i>
  <i name="date" type="string">2023 09 19 </i>
  <i name="time" type="string">17:55:17 </i>
 </generator>
 <incar>
  <i type="string" name="PREC">Normal</i>
  <i type="int" name="IBRION">     1</i>
  <i type="int" name="NFREE">     2</i>
  <i name="EDIFFG">     -0.02000000</i>
  <i type="int" name="NSW">    20</i>
  <i name="ENCUT">    900.00000000</i>
  <i type="int" name="ISMEAR">     0</i>
  <i name="SIGMA">      0.10000000</i>
 </incar>
 <primitive_cell>
  <structure name="primitive_cell" >
   <crystal>
    <varray name="basis" >
     <v>       7.93770000       0.00000000       0.00000000 </v>
     <v>       0.00000000       7.93770000       0.00000000 </v>
     <v>       0.00000000       0.00000000       7.93770000 </v>
    </varray>
    <i name="volume">    500.13130916 </i>
    <varray name="rec_basis" >
     <v>       0.12598108       0.00000000       0.00000000 </v>
     <v>       0.00000000       0.12598108       0.00000000 </v>
     <v>       0.00000000       0.00000000       0.12598108 </v>
    </varray>
   </crystal>
   <varray name="positions" >
    <v>       0.00000000       0.00000000       0.00000000 </v>
    <v>       0.07333333       0.90466667       0.00000000 </v>
    <v>       0.07333333       0.09533333       0.00000000 </v>
   </varray>
  </structure>
  <varray name="primitive_index" >
   <v type="int" >        1 </v>
   <v type="int" >        2 </v>
   <v type="int" >        3 </v>
  </varray>
 </primitive_cell>
 <kpoints>
  <generation param="Monkhorst-Pack">
   <v type="int" name="divisions">       1        1        1 </v>
   <v name="usershift">      0.00000000       0.00000000       0.00000000 </v>
   <v name="genvec1">      1.00000000       0.00000000       0.00000000 </v>
   <v name="genvec2">      0.00000000       1.00000000       0.00000000 </v>
   <v name="genvec3">      0.00000000       0.00000000       1.00000000 </v>
   <v name="shift">      0.00000000       0.00000000       0.00000000 </v>
  </generation>
  <varray name="kpointlist" >
   <v>       0.00000000       0.00000000       0.00000000 </v>
  </varray>
  <varray name="weights" >
   <v>       1.00000000 </v>
  </varray>
 </kpoints>
 <parameters>
  <separator name="general" >
   <i type="string" name="SYSTEM">unknown system</i>
   <i type="logical" name="LCOMPAT"> F  </i>
  </separator>
  <separator name="electronic" >
   <i type="string" name="PREC">normal</i>
   <i name="ENMAX">    900.00000000</i>
   <i name="ENAUG">    605.39200000</i>
   <i name="EDIFF">      0.00010000</i>
   <i type="int" name="IALGO">    38</i>
   <i type="int" name="IWAVPR">    11</i>
   <i type="int" name="NBANDS">     8</i>
   <i type="int" name="NBANDSLOW">    -1</i>
   <i type="int" name="NBANDSHIGH">    -1</i>
   <i name="NELECT">      8.00000000</i>
   <i type="int" name="TURBO">     0</i>
   <i type="int" name="IRESTART">     0</i>
   <i type="int" name="NREBOOT">     0</i>
   <i type="int" name="NMIN">     0</i>
   <i name="EREF">      0.00000000</i>
   <separator name="electronic smearing" >
    <i type="int" name="ISMEAR">     0</i>
    <i name="SIGMA">      0.10000000</i>
    <i name="KSPACING">      0.50000000</i>
    <i type="logical" name="KGAMMA"> T  </i>
    <i type="logical" name="KBLOWUP"> T  </i>
   </separator>
   <separator name="electronic projectors" >
    <i type="logical" name="LREAL"> F  </i>
    <v name="ROPT">      0.00000000      0.00000000</v>
    <i type="int" name="LMAXPAW">  -100</i>
    <i type="int" name="LMAXMIX">     2</i>
    <i type="logical" name="NLSPLINE"> F  </i>
   </separator>
   <separator name="electronic startup" >
    <i type="int" name="ISTART">     0</i>
    <i type="int" name="ICHARG">     2</i>
    <i type="int" name="INIWAV">     1</i>
   </separator>
   <separator name="electronic spin" >
    <i type="int" name="ISPIN">     1</i>
    <i type="logical" name="LNONCOLLINEAR"> F  </i>
    <v name="MAGMOM">      1.00000000      1.00000000      1.00000000</v>
    <i name="NUPDOWN">     -1.00000000</i>
    <i type="logical" name="LSORBIT"> F  </i>
    <v name="SAXIS">      0.00000000      0.00000000      1.00000000</v>
    <i type="logical" name="LSPIRAL"> F  </i>
    <v name="QSPIRAL">      0.00000000      0.00000000      0.00000000</v>
    <i type="logical" name="LZEROZ"> F  </i>
   </separator>
   <separator name="electronic exchange-correlation" >
    <i type="logical" name="LASPH"> F  </i>
    <i type="logical" name="LMETAGGA"> F  </i>
   </separator>
   <separator name="electronic convergence" >
    <i type="int" name="NELM">    60</i>
    <i type="int" name="NELMDL">    -5</i>
    <i type="int" name="NELMIN">     2</i>
    <i name="ENINI">    900.00000000</i>
    <separator name="electronic convergence detail" >
     <i type="logical" name="LDIAG"> T  </i>
     <i type="logical" name="LSUBROT"> F  </i>
     <i name="WEIMIN">      0.00100000</i>
     <i name="EBREAK">      0.00000313</i>
     <i name="DEPER">      0.30000000</i>
     <i type="int" name="NRMM">     4</i>
     <i name="TIME">      0.40000000</i>
    </separator>
   </separator>
   <separator name="electronic mixer" >
    <i name="AMIX">      0.40000000</i>
    <i name="BMIX">      1.00000000</i>
    <i name="AMIN">      0.10000000</i>
    <i name="AMIX_MAG">      1.60000000</i>
    <i name="BMIX_MAG">      1.00000000</i>
    <separator name="electronic mixer details" >
     <i type="int" name="IMIX">     4</i>
     <i type="logical" name="MIXFIRST"> F  </i>
     <i type="int" name="MAXMIX">   -45</i>
     <i name="WC">    100.00000000</i>
     <i type="int" name="INIMIX">     1</i>
     <i type="int" name="MIXPRE">     1</i>
     <i type="int" name="MREMOVE">     5</i>
    </separator>
   </separator>
   <separator name="electronic dipolcorrection" >
    <i type="logical" name="LDIPOL"> F  </i>
    <i type="logical" name="LMONO"> F  </i>
    <i type="int" name="IDIPOL">     0</i>
    <i name="EPSILON">      1.00000000</i>
    <v name="DIPOL">   -100.00000000   -100.00000000   -100.00000000</v>
    <i name="EFIELD">      0.00000000</i>
   </separator>
  </separator>
  <separator name="grids" >
   <i type="int" name="NGX">    60</i>
   <i type="int" name="NGY">    60</i>
   <i type="int" name="NGZ">    60</i>
   <i type="int" name="NGXF">   120</i>
   <i type="int" name="NGYF">   120</i>
   <i type="int" name="NGZF">   120</i>
   <i type="logical" name="ADDGRID"> F  </i>
  </separator>
  <separator name="ionic" >
   <i type="int" name="NSW">    20</i>
   <i type="int" name="IBRION">     1</i>
   <i type="int" name="MDALGO">     0</i>
   <i type="int" name="ISIF">     2</i>
   <i name="PSTRESS">      0.00000000</i>
   <i name="EDIFFG">     -0.02000000</i>
   <i type="int" name="NFREE">     2</i>
   <i name="POTIM">      0.50000000</i>
   <i name="SMASS">     -3.00000000</i>
   <i name="SCALEE">      1.00000000</i>
  </separator>
  <separator name="ionic md" >
   <i name="TEBEG">      0.00010000</i>
   <i name="TEEND">      0.00010000</i>
   <i type="int" name="NBLOCK">     1</i>
   <i type="int" name="KBLOCK">    20</i>
   <i type="int" name="NPACO">   256</i>
   <i name="APACO">     10.00000000</i>
  </separator>
  <separator name="symmetry" >
   <i type="int" name="ISYM">     2</i>
   <i name="SYMPREC">      0.00001000</i>
  </separator>
  <separator name="dos" >
   <i type="int" name="LORBIT">     0</i>
   <v name="RWIGS">     -1.00000000     -1.00000000</v>
   <i type="int" name="NEDOS">   301</i>
   <i name="EMIN">     10.00000000</i>
   <i name="EMAX">    -10.00000000</i>
   <i name="EFERMI">      0.00000000</i>
  </separator>
  <separator name="writing" >
   <i type="int" name="NWRITE">     2</i>
   <i type="logical" name="LWAVE"> T  </i>
   <i type="logical" name="LDOWNSAMPLE"> F  </i>
   <i type="logical" name="LCHARG"> T  </i>
   <i type="logical" name="LPARD"> F  </i>
   <i type="logical" name="LVTOT"> F  </i>
   <i type="logical" name="LVHAR"> F  </i>
   <i type="logical" name="LELF"> F  </i>
   <i type="logical" name="LOPTICS"> F  </i>
   <v name="STM">      0.00000000      0.00000000      0.00000000      0.00000000      0.00000000      0.00000000      0.00000000</v>
  </separator>
  <separator name="performance" >
   <i type="int" name="NPAR">     1</i>
   <i type="int" name="NSIM">     4</i>
   <i type="int" name="NBLK">    -1</i>
   <i type="logical" name="LPLANE"> T  </i>
   <i type="logical" name="LSCALAPACK"> T  </i>
   <i type="logical" name="LSCAAWARE"> F  </i>
   <i type="logical" name="LSCALU"> F  </i>
   <i type="logical" name="LASYNC"> F  </i>
   <i type="logical" name="LORBITALREAL"> F  </i>
  </separator>
  <separator name="miscellaneous" >
   <i type="int" name="IDIOT">     3</i>
   <i type="int" name="PHON_NSTRUCT">    -1</i>
   <i type="logical" name="LMUSIC"> F  </i>
   <v name="POMASS">     16.00000000      1.00000000</v>
   <v name="DARWINR">      0.00000000      0.00000000</v>
   <v name="DARWINV">      1.00000000      1.00000000</v>
   <i type="logical" name="LCORR"> T  </i>
  </separator>
  <i type="logical" name="GGA_COMPAT"> T  </i>
  <i type="logical" name="LBERRY"> F  </i>
  <i type="int" name="ICORELEVEL">     0</i>
  <i type="logical" name="LDAU"> F  </i>
  <i type="int" name="I_CONSTRAINED_M">     0</i>
  <separator name="electronic exchange-correlation" >
   <i type="string" name="GGA">--</i>
   <i type="int" name="VOSKOWN">     0</i>
   <i type="logical" name="LHFCALC"> F  </i>
   <i type="string" name="PRECFOCK"></i>
   <i type="logical" name="LSYMGRAD"> F  </i>
   <i type="logical" name="LHFONE"> F  </i>
   <i type="logical" name="LRHFCALC"> F  </i>
   <i type="logical" name="LTHOMAS"> F  </i>
   <i type="logical" name="LMODELHF"> F  </i>
   <i type="logical" name="LFOCKACE"> F  </i>
   <i name="ENCUT4O">     -1.00000000</i>
   <i type="int" name="EXXOEP">     0</i>
   <i type="int" name="FOURORBIT">     0</i>
   <i name="AEXX">      0.00000000</i>
   <i name="HFALPHA">      0.00000000</i>
   <i name="MCALPHA">      0.00000000</i>
   <i name="ALDAX">      1.00000000</i>
   <i name="AGGAX">      1.00000000</i>
   <i name="ALDAC">      1.00000000</i>
   <i name="AGGAC">      1.00000000</i>
   <i type="int" name="NKREDX">     1</i>
   <i type="int" name="NKREDY">     1</i>
   <i type="int" name="NKREDZ">     1</i>
   <i type="logical" name="SHIFTRED"> F  </i>
   <i type="logical" name="ODDONLY"> F  </i>
   <i type="logical" name="EVENONLY"> F  </i>
   <i type="int" name="LMAXFOCK">     0</i>
   <i type="int" name="NMAXFOCKAE">     0</i>
   <i type="logical" name="LFOCKAEDFT"> F  </i>
   <i name="HFSCREEN">      0.00000000</i>
   <i name="HFSCREENC">      0.00000000</i>
   <i type="int" name="NBANDSGWLOW">     0</i>
  </separator>
  <separator name="vdW DFT" >
   <i type="logical" name="LUSE_VDW"> F  </i>
   <i name="Zab_VDW">     -0.84910000</i>
   <i name="PARAM1">      0.12340000</i>
   <i name="PARAM2">      1.00000000</i>
   <i name="PARAM3">      0.00000000</i>
  </separator>
  <separator name="model GW" >
   <i type="int" name="MODEL_GW">     0</i>
   <i name="MODEL_EPS0">    100.02626183</i>
   <i name="MODEL_ALPHA">      1.00000000</i>
  </separator>
  <separator name="linear response parameters" >
   <i type="logical" name="LEPSILON"> F  </i>
   <i type="logical" name="LRPA"> F  </i>
   <i type="logical" name="LNABLA"> F  </i>
   <i type="logical" name="LVEL"> F  </i>
   <i name="CSHIFT">      0.10000000</i>
   <i name="OMEGAMAX">     -1.00000000</i>
   <i name="DEG_THRESHOLD">      0.00200000</i>
   <i name="RTIME">     -0.10000000</i>
   <i name="WPLASMAI">      0.00000000</i>
   <v name="DFIELD">      0.00000000      0.00000000      0.00000000</v>
   <v name="WPLASMA">      0.00000000      0.00000000      0.00000000      0.00000000      0.00000000      0.00000000      0.00000000      0.00000000      0.00000000</v>
  </separator>
  <separator name="orbital magnetization" >
   <i type="logical" name="NUCIND"> F  </i>
   <v name="MAGPOS">      0.00000000      0.00000000      0.00000000</v>
   <i type="logical" name="LNICSALL"> T  </i>
   <i type="logical" name="ORBITALMAG"> F  </i>
   <i type="logical" name="LMAGBLOCH"> F  </i>
   <i type="logical" name="LCHIMAG"> F  </i>
   <i type="logical" name="LGAUGE"> T  </i>
   <i type="int" name="MAGATOM">     0</i>
   <v name="MAGDIPOL">      0.00000000      0.00000000      0.00000000</v>
   <v name="AVECCONST">      0.00000000      0.00000000      0.00000000</v>
  </separator>
  <separator name="response functions" >
   <i type="logical" name="LFINITE_TEMPERATURE"> F  </i>
   <i type="logical" name="LADDER"> F  </i>
   <i type="logical" name="LRPAFORCE"> F  </i>
   <i type="logical" name="LFXC"> F  </i>
   <i type="logical" name="LHARTREE"> T  </i>
   <i type="int" name="IBSE">     0</i>
   <v type="int" name="KPOINT">    -1     0     0     0</v>
   <i type="logical" name="LTCTC"> F  </i>
   <i type="logical" name="LTCTE"> F  </i>
   <i type="logical" name="LTETE"> F  </i>
   <i type="logical" name="LTRIPLET"> F  </i>
   <i type="logical" name="LFXCEPS"> F  </i>
   <i type="logical" name="LFXHEG"> F  </i>
   <i type="int" name="NATURALO">     2</i>
   <i type="logical" name="LHOLEGF"> F  </i>
   <i type="logical" name="L2ORDER"> F  </i>
   <i type="logical" name="LDMP1"> F  </i>
   <i type="logical" name="LMP2LT"> F  </i>
   <i type="logical" name="LSMP2LT"> F  </i>
   <i type="logical" name="LGWLF"> F  </i>
   <i name="ENCUTGW">     -2.00000000</i>
   <i name="ENCUTGWSOFT">     -2.00000000</i>
   <i name="ENCUTLF">     -1.00000000</i>
   <i type="logical" name="LESF_SPLINES"> F  </i>
   <i type="int" name="LMAXMP2">    -1</i>
   <i name="SCISSOR">      0.00000000</i>
   <i type="int" name="NOMEGA">     0</i>
   <i type="int" name="NOMEGAR">     0</i>
   <i type="int" name="NBANDSGW">    -1</i>
   <i type="int" name="NBANDSO">    -1</i>
   <i type="int" name="NBANDSV">    -1</i>
   <i type="int" name="NELMGW">     1</i>
   <i type="int" name="NELMHF">     1</i>
   <i type="int" name="DIM">     3</i>
   <i type="int" name="IESPILON">     4</i>
   <i type="int" name="ANTIRES">     0</i>
   <i name="OMEGAMAX">    -30.00000000</i>
   <i name="OMEGAMIN">    -30.00000000</i>
   <i name="OMEGATL">   -200.00000000</i>
   <i type="int" name="OMEGAGRID">     0</i>
   <i name="CSHIFT">     -0.10000000</i>
   <i type="logical" name="LSELFENERGY"> F  </i>
   <i type="logical" name="LSPECTRAL"> F  </i>
   <i type="logical" name="LSPECTRALGW"> F  </i>
   <i type="logical" name="LSINGLES"> F  </i>
   <i type="logical" name="LFERMIGW"> F  </i>
   <i type="logical" name="ODDONLYGW"> F  </i>
   <i type="logical" name="EVENONLYGW"> F  </i>
   <i type="int" name="NKREDLFX">     1</i>
   <i type="int" name="NKREDLFY">     1</i>
   <i type="int" name="NKREDLFZ">     1</i>
   <i type="int" name="MAXMEM">  2800</i>
   <i type="int" name="TELESCOPE">     0</i>
   <i type="int" name="NTAUPAR">    -1</i>
   <i type="int" name="NOMEGAPAR">    -1</i>
   <i name="DAMP_NEWTON">      0.80000001</i>
   <i name="LAMBDA">      1.00000000</i>
  </separator>
  <separator name="External order field" >
   <i name="OFIELD_KAPPA">      0.00000000</i>
   <v name="OFIELD_K">      0.00000000      0.00000000      0.00000000</v>
   <i name="OFIELD_Q6_NEAR">      0.00000000</i>
   <i name="OFIELD_Q6_FAR">      0.00000000</i>
   <i name="OFIELD_A">      0.00000000</i>
  </separator>
  <separator name="optional k-points parameters" >
   <i type="int" name="KPOINTS_OPT_MODE">     1</i>
   <i type="logical" name="LKPOINTS_OPT"> F  </i>
  </separator>
 </parameters>
 <atominfo>
  <atoms>       3 </atoms>
  <types>       2 </types>
  <array name="atoms" >
   <dimension dim="1">ion</dimension>
   <field type="string">element</field>
   <field type="int">atomtype</field>
   <set>
    <rc><c>O </c><c>   1</c></rc>
    <rc><c>H </c><c>   2</c></rc>
    <rc><c>H </c><c>   2</c></rc>
   </set>
  </array>
  <array name="atomtypes" >
   <dimension dim="1">type</dimension>
   <field type="int">atomspertype</field>
   <field type="string">element</field>
   <field>mass</field>
   <field>valence</field>
   <field type="string">pseudopotential</field>
   <set>
    <rc><c>   1</c><c>O </c><c>     16.00000000</c><c>      6.00000000</c><c> PAW_RPBE O 08Apr2002                   </c></rc>
    <rc><c>   2</c><c>H </c><c>      1.00000000</c><c>      1.00000000</c><c> PAW_RPBE H 15Jun2001                   </c></rc>
   </set>
  </array>
 </atominfo>
 <structure name="initialpos" >
  <crystal>
   <varray name="basis" >
    <v>       7.93770000       0.00000000       0.00000000 </v>
    <v>       0.00000000       7.93770000       0.00000000 </v>
    <v>       0.00000000       0.00000000       7.93770000 </v>
   </varray>
   <i name="volume">    500.13130916 </i>
   <varray name="rec_basis" >
    <v>       0.12598108       0.00000000       0.00000000 </v>
    <v>       0.00000000       0.12598108       0.00000000 </v>
    <v>       0.00000000       0.00000000       0.12598108 </v>
   </varray>
  </crystal>
  <varray name="positions" >
   <v>       0.00000000       0.00000000       0.00000000 </v>
   <v>       0.07333333       0.90466667       0.00000000 </v>
   <v>       0.07333333       0.09533333       0.00000000 </v>
  </varray>
  <varray name="selective"  type="logical" >
   <v type="logical" >  F  F  F </v>
   <v type="logical" >  T  T  F </v>
   <v type="logical" >  T  T  F </v>
  </varray>
  <nose>
   <v>      -3.00000000       0.00000000       0.00010000       0.00010000 </v>
  </nose>
 </structure>
 <calculation>
  <scstep>
   <time name="dav">    0.17    0.17</time>
   <time name="total">    0.86    0.86</time>
   <energy>
    <i name="alphaZ">      0.44832783 </i>
    <i name="ewald">     26.60306768 </i>
    <i name="hartreedc">   -386.12288572 </i>
    <i name="XCdc">     32.30058005 </i>
    <i name="pawpsdc">    247.56105404 </i>
    <i name="pawaedc">   -249.42875511 </i>
    <i name="eentropy">     -0.02809860 </i>
    <i name="bandstr">    -55.08960834 </i>
    <i name="atom">    457.35265518 </i>
    <i name="e_fr_energy">     73.59633700 </i>
    <i name="e_wo_entrp">     73.62443560 </i>
    <i name="e_0_energy">     73.61038630 </i>
   </energy>
  </scstep>
  <scstep>
   <time name="dav">    0.25    0.25</time>
   <time name="total">    0.25    0.25</time>
   <energy>
    <i name="e_fr_energy">     12.26357077 </i>
    <i name="e_wo_entrp">     12.26357077 </i>
    <i name="e_0_energy">     12.26357077 </i>
   </energy>
  </scstep>
  <scstep>
   <time name="dav">    0.12    0.12</time>
   <time name="total">    0.12    0.12</time>
   <energy>
    <i name="e_fr_energy">    -14.54636603 </i>
    <i name="e_wo_entrp">    -14.54636603 </i>
    <i name="e_0_energy">    -14.54636603 </i>
   </energy>
  </scstep>
  <scstep>
   <time name="dav">    0.12    0.12</time>
   <time name="total">    0.12    0.12</time>
   <energy>
    <i name="e_fr_energy">    -16.35683772 </i>
    <i name="e_wo_entrp">    -16.35683772 </i>
    <i name="e_0_energy">    -16.35683772 </i>
   </energy>
  </scstep>
  <scstep>
   <time name="dav">    0.16    0.16</time>
   <time name="total">    0.27    0.27</time>
   <energy>
    <i name="e_fr_energy">    -16.36976815 </i>
    <i name="e_wo_entrp">    -16.36976815 </i>
    <i name="e_0_energy">    -16.36976815 </i>
   </energy>
  </scstep>
  <scstep>
   <time name="dav">    0.15    0.15</time>
   <time name="total">    0.89    0.89</time>
   <energy>
    <i name="e_fr_energy">    -14.40430605 </i>
    <i name="e_wo_entrp">    -14.40430605 </i>
    <i name="e_0_energy">    -14.40430605 </i>
   </energy>
  </scstep>
  <scstep>
   <time name="dav">    0.18    0.18</time>
   <time name="total">    0.89    0.89</time>
   <energy>
    <i name="e_fr_energy">    -14.29176270 </i>
    <i name="e_wo_entrp">    -14.29176270 </i>
    <i name="e_0_energy">    -14.29176270 </i>
   </energy>
  </scstep>
  <scstep>
   <time name="dav">    0.18    0.18</time>
   <time name="total">    0.89    0.89</time>
   <energy>
    <i name="e_fr_energy">    -14.20250712 </i>
    <i name="e_wo_entrp">    -14.20250712 </i>
    <i name="e_0_energy">    -14.20250712 </i>
   </energy>
  </scstep>
  <scstep>
   <time name="dav">    0.16    0.16</time>
   <time name="total">    0.86    0.87</time>
   <energy>
    <i name="e_fr_energy">    -14.20604227 </i>
    <i name="e_wo_entrp">    -14.20604227 </i>
    <i name="e_0_energy">    -14.20604227 </i>
   </energy>
  </scstep>
  <scstep>
   <time name="dav">    0.16    0.16</time>
   <time name="total">    0.88    0.88</time>
   <energy>
    <i name="e_fr_energy">    -14.21481448 </i>
    <i name="e_wo_entrp">    -14.21481448 </i>
    <i name="e_0_energy">    -14.21481448 </i>
   </energy>
  </scstep>
  <scstep>
   <time name="dav">    0.12    0.12</time>
   <time name="total">    0.82    0.82</time>
   <energy>
    <i name="e_fr_energy">    -14.22216024 </i>
    <i name="e_wo_entrp">    -14.22216024 </i>
    <i name="e_0_energy">    -14.22216024 </i>
   </energy>
  </scstep>
  <scstep>
   <time name="dav">    0.23    0.23</time>
   <time name="total">    0.93    0.93</time>
   <energy>
    <i name="e_fr_energy">    -14.22301574 </i>
    <i name="e_wo_entrp">    -14.22301574 </i>
    <i name="e_0_energy">    -14.22301574 </i>
   </energy>
  </scstep>
  <scstep>
   <time name="dav">    0.16    0.16</time>
   <time name="total">    0.84    0.84</time>
   <energy>
    <i name="e_fr_energy">    -14.22422832 </i>
    <i name="e_wo_entrp">    -14.22422832 </i>
    <i name="e_0_energy">    -14.22422832 </i>
   </energy>
  </scstep>
  <scstep>
   <time name="dav">    0.22    0.22</time>
   <time name="total">    0.77    0.77</time>
   <energy>
    <i name="alphaZ">      0.44832783 </i>
    <i name="ewald">     26.60306768 </i>
    <i name="hartreedc">   -421.61118821 </i>
    <i name="XCdc">     34.21451033 </i>
    <i name="pawpsdc">    330.11060382 </i>
    <i name="pawaedc">   -332.27097213 </i>
    <i name="eentropy">     -0.00000000 </i>
    <i name="bandstr">   -109.07130578 </i>
    <i name="atom">    457.35265518 </i>
    <i name="e_fr_energy">    -14.22430127 </i>
    <i name="e_wo_entrp">    -14.22430127 </i>
    <i name="e_0_energy">    -14.22430127 </i>
   </energy>
  </scstep>
  <structure>
   <crystal>
    <varray name="basis" >
     <v>       7.93770000       0.00000000       0.00000000 </v>
     <v>       0.00000000       7.93770000       0.00000000 </v>
     <v>       0.00000000       0.00000000       7.93770000 </v>
    </varray>
    <i name="volume">    500.13130916 </i>
    <varray name="rec_basis" >
     <v>       0.12598108       0.00000000       0.00000000 </v>
     <v>       0.00000000       0.12598108       0.00000000 </v>
     <v>       0.00000000       0.00000000       0.12598108 </v>
    </varray>
   </crystal>
   <varray name="positions" >
    <v>       0.00000000       0.00000000       0.00000000 </v>
    <v>       0.07333333       0.90466667       0.00000000 </v>
    <v>       0.07333333       0.09533333       0.00000000 </v>
   </varray>
  </structure>
  <varray name="forces" >
   <v>      -1.03536865      -0.00000000      -0.00000000 </v>
   <v>       0.51768432      -0.70937392       0.00000000 </v>
   <v>       0.51768432       0.70937392      -0.00000000 </v>
  </varray>
  <varray name="stress" >
   <v>       1.81943261       0.00000000       0.00000000 </v>
   <v>       0.00000000       3.45722450       0.00000000 </v>
   <v>       0.00000000       0.00000000       0.03012410 </v>
  </varray>
  <energy>
   <i name="e_fr_energy">    -14.22430127 </i>
   <i name="e_wo_entrp">    -14.22430127 </i>
   <i name="e_0_energy">    -14.22430127 </i>
  </energy>
  <time name="totalsc">   12.33   12.38</time>
 </calculation>
 <calculation>
  <scstep>
   <time name="dav">    0.15    0.15</time>
   <time name="total">    0.78    0.78</time>
   <energy>
    <i name="alphaZ">      0.44832783 </i>
    <i name="ewald">     18.57678856 </i>
    <i name="hartreedc">   -417.40342247 </i>
    <i name="XCdc">     34.00924634 </i>
    <i name="pawpsdc">    330.05798817 </i>
    <i name="pawaedc">   -332.21810379 </i>
    <i name="eentropy">     -0.00000000 </i>
    <i name="bandstr">   -105.04422711 </i>
    <i name="atom">    457.35265518 </i>
    <i name="e_fr_energy">    -14.22074730 </i>
    <i name="e_wo_entrp">    -14.22074730 </i>
    <i name="e_0_energy">    -14.22074730 </i>
   </energy>
  </scstep>
  <scstep>
   <time name="dav">    0.22    0.22</time>
   <time name="total">    0.86    0.86</time>
   <energy>
    <i name="e_fr_energy">    -14.20865241 </i>
    <i name="e_wo_entrp">    -14.20865241 </i>
    <i name="e_0_energy">    -14.20865241 </i>
   </energy>
  </scstep>
  <scstep>
   <time name="dav">    0.17    0.17</time>
   <time name="total">    0.74    0.74</time>
   <energy>
    <i name="e_fr_energy">    -14.20812668 </i>
    <i name="e_wo_entrp">    -14.20812668 </i>
    <i name="e_0_energy">    -14.20812668 </i>
   </energy>
  </scstep>
  <scstep>
   <time name="dav">    0.19    0.19</time>
   <time name="total">    0.76    0.76</time>
   <energy>
    <i name="alphaZ">      0.44832783 </i>
    <i name="ewald">     18.57678856 </i>
    <i name="hartreedc">   -415.34147303 </i>
    <i name="XCdc">     33.89508196 </i>
    <i name="pawpsdc">    318.95441173 </i>
    <i name="pawaedc">   -321.06257444 </i>
    <i name="eentropy">     -0.00000000 </i>
    <i name="bandstr">   -107.03125168 </i>
    <i name="atom">    457.35265518 </i>
    <i name="e_fr_energy">    -14.20803389 </i>
    <i name="e_wo_entrp">    -14.20803389 </i>
    <i name="e_0_energy">    -14.20803389 </i>
   </energy>
  </scstep>
  <structure>
   <crystal>
    <varray name="basis" >
     <v>       7.93770000       0.00000000       0.00000000 </v>
     <v>       0.00000000       7.93770000       0.00000000 </v>
     <v>       0.00000000       0.00000000       7.93770000 </v>
    </varray>
    <i name="volume">    500.13130916 </i>
    <varray name="rec_basis" >
     <v>       0.12598108       0.00000000       0.00000000 </v>
     <v>       0.00000000       0.12598108       0.00000000 </v>
     <v>       0.00000000       0.00000000       0.12598108 </v>
    </varray>
   </crystal>
   <varray name="positions" >
    <v>       0.00000000       0.00000000       0.00000000 </v>
    <v>       0.07647964       0.90035533       0.00000000 </v>
    <v>       0.07647964       0.09964467       0.00000000 </v>
   </varray>
  </structure>
  <varray name="forces" >
   <v>       1.21804924      -0.00000000      -0.00000000 </v>
   <v>      -0.60902462       0.99229677      -0.00000000 </v>
   <v>      -0.60902462      -0.99229677       0.00000000 </v>
  </varray>
  <varray name="stress" >
   <v>      -2.51607963       0.00000000       0.00000000 </v>
   <v>       0.00000000      -5.08902420       0.00000000 </v>
   <v>       0.00000000       0.00000000      -0.07116863 </v>
  </varray>
  <energy>
   <i name="e_fr_energy">    -14.20803389 </i>
   <i name="e_wo_entrp">    -14.20803389 </i>
   <i name="e_0_energy">    -14.20803389 </i>
  </energy>
  <time name="totalsc">    4.27    4.28</time>
 </calculation>
 <calculation>
  <scstep>
   <time name="dav">    0.13    0.13</time>
   <time name="total">    0.72    0.72</time>
   <energy>
    <i name="alphaZ">      0.44832783 </i>
    <i name="ewald">     23.05357716 </i>
    <i name="hartreedc">   -417.67336818 </i>
    <i name="XCdc">     34.00864949 </i>
    <i name="pawpsdc">    318.62244955 </i>
    <i name="pawaedc">   -320.72853517 </i>
    <i name="eentropy">     -0.00000000 </i>
    <i name="bandstr">   -109.32623598 </i>
    <i name="atom">    457.35265518 </i>
    <i name="e_fr_energy">    -14.24248013 </i>
    <i name="e_wo_entrp">    -14.24248013 </i>
    <i name="e_0_energy">    -14.24248013 </i>
   </energy>
  </scstep>
  <scstep>
   <time name="dav">    0.17    0.17</time>
   <time name="total">    0.79    0.79</time>
   <energy>
    <i name="e_fr_energy">    -14.23899842 </i>
    <i name="e_wo_entrp">    -14.23899842 </i>
    <i name="e_0_energy">    -14.23899842 </i>
   </energy>
  </scstep>
  <scstep>
   <time name="dav">    0.13    0.13</time>
   <time name="total">    0.75    0.75</time>
   <energy>
    <i name="e_fr_energy">    -14.23881588 </i>
    <i name="e_wo_entrp">    -14.23881588 </i>
    <i name="e_0_energy">    -14.23881588 </i>
   </energy>
  </scstep>
  <scstep>
   <time name="dav">    0.13    0.13</time>
   <time name="total">    0.67    0.67</time>
   <energy>
    <i name="alphaZ">      0.44832783 </i>
    <i name="ewald">     23.05357716 </i>
    <i name="hartreedc">   -418.81397824 </i>
    <i name="XCdc">     34.07107082 </i>
    <i name="pawpsdc">    324.51506328 </i>
    <i name="pawaedc">   -326.64883192 </i>
    <i name="eentropy">     -0.00000000 </i>
    <i name="bandstr">   -108.21669438 </i>
    <i name="atom">    457.35265518 </i>
    <i name="e_fr_energy">    -14.23881027 </i>
    <i name="e_wo_entrp">    -14.23881027 </i>
    <i name="e_0_energy">    -14.23881027 </i>
   </energy>
  </scstep>
  <structure>
   <crystal>
    <varray name="basis" >
     <v>       7.93770000       0.00000000       0.00000000 </v>
     <v>       0.00000000       7.93770000       0.00000000 </v>
     <v>       0.00000000       0.00000000       7.93770000 </v>
    </varray>
    <i name="volume">    500.13130916 </i>
    <varray name="rec_basis" >
     <v>       0.12598108       0.00000000       0.00000000 </v>
     <v>       0.00000000       0.12598108       0.00000000 </v>
     <v>       0.00000000       0.00000000       0.12598108 </v>
    </varray>
   </crystal>
   <varray name="positions" >
    <v>       0.00000000       0.00000000       0.00000000 </v>
    <v>       0.07488857       0.90294770       0.00000000 </v>
    <v>       0.07488857       0.09705230       0.00000000 </v>
   </varray>
  </structure>
  <varray name="forces" >
   <v>       0.04060576       0.00000000       0.00000000 </v>
   <v>      -0.02030288       0.07834582       0.00000000 </v>
   <v>      -0.02030288      -0.07834582      -0.00000000 </v>
  </varray>
  <varray name="stress" >
   <v>      -0.08559861       0.00000000       0.00000000 </v>
   <v>       0.00000000      -0.24848927       0.00000000 </v>
   <v>       0.00000000       0.00000000       0.18842633 </v>
  </varray>
  <energy>
   <i name="e_fr_energy">    -14.23881027 </i>
   <i name="e_wo_entrp">    -14.23881027 </i>
   <i name="e_0_energy">    -14.23881027 </i>
  </energy>
  <time name="totalsc">    4.04    4.05</time>
 </calculation>
 <calculation>
  <scstep>
   <time name="dav">    0.23    0.23</time>
   <time name="total">    0.86    0.86</time>
   <energy>
    <i name="alphaZ">      0.44832783 </i>
    <i name="ewald">     23.36729780 </i>
    <i name="hartreedc">   -419.02128082 </i>
    <i name="XCdc">     34.08157500 </i>
    <i name="pawpsdc">    324.81912343 </i>
    <i name="pawaedc">   -326.95471097 </i>
    <i name="eentropy">     -0.00000000 </i>
    <i name="bandstr">   -108.33195881 </i>
    <i name="atom">    457.35265518 </i>
    <i name="e_fr_energy">    -14.23897137 </i>
    <i name="e_wo_entrp">    -14.23897137 </i>
    <i name="e_0_energy">    -14.23897137 </i>
   </energy>
  </scstep>
  <scstep>
   <time name="dav">    0.17    0.17</time>
   <time name="total">    0.70    0.70</time>
   <energy>
    <i name="alphaZ">      0.44832783 </i>
    <i name="ewald">     23.36729780 </i>
    <i name="hartreedc">   -419.08256705 </i>
    <i name="XCdc">     34.08500063 </i>
    <i name="pawpsdc">    325.05827578 </i>
    <i name="pawaedc">   -327.19480217 </i>
    <i name="eentropy">     -0.00000000 </i>
    <i name="bandstr">   -108.27315173 </i>
    <i name="atom">    457.35265518 </i>
    <i name="e_fr_energy">    -14.23896373 </i>
    <i name="e_wo_entrp">    -14.23896373 </i>
    <i name="e_0_energy">    -14.23896373 </i>
   </energy>
  </scstep>
  <structure>
   <crystal>
    <varray name="basis" >
     <v>       7.93770000       0.00000000       0.00000000 </v>
     <v>       0.00000000       7.93770000       0.00000000 </v>
     <v>       0.00000000       0.00000000       7.93770000 </v>
    </varray>
    <i name="volume">    500.13130916 </i>
    <varray name="rec_basis" >
     <v>       0.12598108       0.00000000       0.00000000 </v>
     <v>       0.00000000       0.12598108       0.00000000 </v>
     <v>       0.00000000       0.00000000       0.12598108 </v>
    </varray>
   </crystal>
   <varray name="positions" >
    <v>       0.00000000       0.00000000       0.00000000 </v>
    <v>       0.07490565       0.90321443       0.00000000 </v>
    <v>       0.07490565       0.09678557       0.00000000 </v>
   </varray>
  </structure>
  <varray name="forces" >
   <v>      -0.02891595      -0.00000000       0.00000000 </v>
   <v>       0.01445798      -0.00113960      -0.00000000 </v>
   <v>       0.01445798       0.00113960      -0.00000000 </v>
  </varray>
  <varray name="stress" >
   <v>      -0.04649065       0.00000000       0.00000000 </v>
   <v>       0.00000000       0.01167587       0.00000000 </v>
   <v>       0.00000000       0.00000000       0.06563682 </v>
  </varray>
  <energy>
   <i name="e_fr_energy">    -14.23896373 </i>
   <i name="e_wo_entrp">    -14.23896373 </i>
   <i name="e_0_energy">    -14.23896373 </i>
  </energy>
  <time name="totalsc">    2.55    2.56</time>
  <eigenvalues>
   <array>
    <dimension dim="1">band</dimension>
    <dimension dim="2">kpoint</dimension>
    <dimension dim="3">spin</dimension>
    <field>eigene</field>
    <field>occ</field>
    <set>
     <set comment="spin 1">
      <set comment="kpoint 1">
       <r>  -25.1154    1.0000 </r>
       <r>  -12.9212    1.0000 </r>
       <r>   -9.0831    1.0000 </r>
       <r>   -7.0169    1.0000 </r>
       <r>   -1.0762    0.0000 </r>
       <r>    1.1217    0.0000 </r>
       <r>    1.2367    0.0000 </r>
       <r>    1.7516    0.0000 </r>
      </set>
     </set>
    </set>
   </array>
  </eigenvalues>
  <separator name="orbital magnetization" >
   <v name="MAGDIPOLOUT">      0.00000000      0.00000000      0.00000000</v>
  </separator>
 </calculation>
 <structure name="finalpos" >
  <crystal>
   <varray name="basis" >
    <v>       7.93770000       0.00000000       0.00000000 </v>
    <v>       0.00000000       7.93770000       0.00000000 </v>
    <v>       0.00000000       0.00000000       7.93770000 </v>
   </varray>
   <i name="volume">    500.13130916 </i>
   <varray name="rec_basis" >
    <v>       0.12598108       0.00000000       0.00000000 </v>
    <v>       0.00000000       0.12598108       0.00000000 </v>
    <v>       0.00000000       0.00000000       0.12598108 </v>
   </varray>
  </crystal>
  <varray name="positions" >
   <v>       0.00000000       0.00000000       0.00000000 </v>
   <v>       0.07490565       0.90321443       0.00000000 </v>
   <v>       0.07490565       0.09678557       0.00000000 </v>
  </varray>
  <varray name="selective"  type="logical" >
   <v type="logical" >  F  F  F </v>
   <v type="logical" >  T  T  F </v>
   <v type="logical" >  T  T  F </v>
  </varray>
  <nose>
   <v>      -3.00000000       0.00000000       0.00010000       0.00010000 </v>
  </nose>
 </structure>
</modeling>
