unknown system                          
           1
     7.937700    0.000000    0.000000
     0.000000    7.937700    0.000000
     0.000000    0.000000    7.937700
   O    H 
     1     2
Direct configuration=     1
   0.00000000  0.00000000  0.00000000
   0.07333333  0.90466667  0.00000000
   0.07333333  0.09533333  0.00000000
Direct configuration=     2
   0.00000000  0.00000000  0.00000000
   0.07647964  0.90035533  0.00000000
   0.07647964  0.09964467  0.00000000
Direct configuration=     3
   0.00000000  0.00000000  0.00000000
   0.07488857  0.90294770  0.00000000
   0.07488857  0.09705230  0.00000000
Direct configuration=     4
   0.00000000  0.00000000  0.00000000
   0.07490565  0.90321443  0.00000000
   0.07490565  0.09678557  0.00000000
