    3    3   20    1
  0.1667104E+03  0.7937700E-09  0.7937700E-09  0.7937700E-09  0.5000000E-15
  1.000000000000000E-004
  CAR 
 unknown system                          
      8      1      8
 
  0.0000000E+00  0.0000000E+00  0.0000000E+00  0.1000000E+01
      1        -25.115331   1.000000
      2        -12.921103   1.000000
      3         -9.083040   1.000000
      4         -7.016847   1.000000
      5         -1.076286   0.000000
      6          1.121127   0.000000
      7          1.236822   0.000000
      8          1.751235   0.000000
