       N       E                     dE             d eps       ncg     rms          rms(c)
DAV:   1     0.743475211858E+02    0.74348E+02   -0.19119E+03    16   0.700E+02
DAV:   2     0.116700477058E+02   -0.62677E+02   -0.62338E+02    32   0.928E+01
DAV:   3    -0.156679970953E+02   -0.27338E+02   -0.27338E+02    24   0.939E+01
DAV:   4    -0.163645517435E+02   -0.69655E+00   -0.69655E+00    16   0.174E+01
DAV:   5    -0.163689926490E+02   -0.44409E-02   -0.44409E-02    24   0.147E+00    0.799E+00
DAV:   6    -0.144035382808E+02    0.19655E+01   -0.98092E+00    16   0.227E+01    0.306E+00
DAV:   7    -0.142911989862E+02    0.11234E+00   -0.15065E-01    24   0.303E+00    0.191E+00
DAV:   8    -0.142020878659E+02    0.89111E-01   -0.72167E-02    24   0.275E+00    0.213E-01
DAV:   9    -0.142057178002E+02   -0.36299E-02   -0.43163E-03    24   0.420E-01    0.139E-01
DAV:  10    -0.142144516604E+02   -0.87339E-02   -0.40622E-03    16   0.550E-01    0.651E-02
DAV:  11    -0.142218022867E+02   -0.73506E-02   -0.49468E-03    16   0.391E-01    0.955E-02
DAV:  12    -0.142226629252E+02   -0.86064E-03   -0.12139E-03    32   0.233E-01    0.205E-02
DAV:  13    -0.142238758224E+02   -0.12129E-02   -0.21536E-04    24   0.102E-01    0.141E-02
DAV:  14    -0.142239486166E+02   -0.72794E-04   -0.12470E-05    32   0.303E-02
   1 F= -.14223949E+02 E0= -.14223949E+02  d E =-.142239E+02
       N       E                     dE             d eps       ncg     rms          rms(c)
DAV:   1    -0.142203947938E+02    0.34810E-02   -0.15839E+00    16   0.113E+01    0.826E-01
DAV:   2    -0.142082733810E+02    0.12121E-01   -0.78240E-02    32   0.210E+00    0.303E-01
DAV:   3    -0.142077531999E+02    0.52018E-03   -0.11691E-03    24   0.344E-01    0.155E-01
DAV:   4    -0.142076631182E+02    0.90082E-04   -0.58504E-04    24   0.260E-01
   2 F= -.14207663E+02 E0= -.14207663E+02  d E =0.162855E-01
       N       E                     dE             d eps       ncg     rms          rms(c)
DAV:   1    -0.142421532758E+02   -0.34400E-01   -0.51595E-01    16   0.643E+00    0.438E-01
DAV:   2    -0.142386668982E+02    0.34864E-02   -0.20711E-02    24   0.112E+00    0.175E-01
DAV:   3    -0.142384846370E+02    0.18226E-03   -0.84152E-04    16   0.258E-01    0.841E-02
DAV:   4    -0.142384805090E+02    0.41280E-05   -0.23167E-04    16   0.155E-01
   3 F= -.14238481E+02 E0= -.14238481E+02  d E =-.308174E-01
       N       E                     dE             d eps       ncg     rms          rms(c)
DAV:   1    -0.142386415072E+02   -0.15687E-03   -0.32092E-03    32   0.555E-01    0.299E-02
DAV:   2    -0.142386338066E+02    0.77006E-05   -0.99145E-05    24   0.818E-02
   4 F= -.14238634E+02 E0= -.14238634E+02  d E =-.153298E-03
