 vasp.6.3.2 27Jun22 (build Oct 19 2022 15:35:57) gamma-only                     
  
 executed on             LinuxIFC date 2023.09.19  17:55:17
 running    1 mpi-ranks, with    1 threads/rank
 distrk:  each k-point on    1 cores,    1 groups
 distr:  one band on NCORE=   1 cores,    1 groups


--------------------------------------------------------------------------------------------------------


 INCAR:
   PREC = Normal
   ISMEAR = 0
   SIGMA = 0.1
   IBRION = 1
   NFREE = 2
   NSW = 20
   EDIFFG = -0.02
   ENCUT = 800

 POTCAR:   PAW_RPBE O 08Apr2002                   
 POTCAR:   PAW_RPBE H 15Jun2001                   
 POTCAR:   PAW_RPBE O 08Apr2002                   
   VRHFIN =O: s2p4                                                                                  
   LEXCH  = PE                                                                                      
   EATOM  =   432.3788 eV,   31.7789 Ry                                                             
                                                                                                    
   TITEL  = PAW_RPBE O 08Apr2002                                                                    
   LULTRA =        F    use ultrasoft PP ?                                                          
   IUNSCR =        0    unscreen: 0-lin 1-nonlin 2-no                                               
   RPACOR =     .000    partial core radius                                                         
   POMASS =   16.000; ZVAL   =    6.000    mass and valenz                                          
   RCORE  =    1.520    outmost cutoff radius                                                       
   RWIGS  =    1.550; RWIGS  =     .820    wigner-seitz radius (au A)                               
   ENMAX  =  400.000; ENMIN  =  300.000 eV                                                          
   ICORE  =        2    local potential                                                             
   LCOR   =        T    correct aug charges                                                         
   LPAW   =        T    paw PP                                                                      
   EAUG   =  605.392                                                                                
   DEXC   =     .000                                                                                
   RMAX   =    2.264    core radius for proj-oper                                                   
   RAUG   =    1.300    factor for augmentation sphere                                              
   RDEP   =    1.550    radius for radial grids                                                     
   QCUT   =   -5.520; QGAM   =   11.041    optimization parameters                                  
                                                                                                    
   Description                                                                                      
     l     E      TYP  RCUT    TYP  RCUT                                                            
     0   .000     23  1.200                                                                         
     0  -.700     23  1.200                                                                         
     1   .000     23  1.520                                                                         
     1   .600     23  1.520                                                                         
     2   .000      7  1.500                                                                         
  local pseudopotential read in
  atomic valenz-charges read in
  non local Contribution for L=           0  read in
    real space projection operators read in
  non local Contribution for L=           0  read in
    real space projection operators read in
  non local Contribution for L=           1  read in
    real space projection operators read in
  non local Contribution for L=           1  read in
    real space projection operators read in
    PAW grid and wavefunctions read in
 
   number of l-projection  operators is LMAX  =           4
   number of lm-projection operators is LMMAX =           8
 
 POTCAR:   PAW_RPBE H 15Jun2001                   
   VRHFIN =H: ultrasoft test                                                                        
   LEXCH  = PE                                                                                      
   EATOM  =    12.4884 eV,     .9179 Ry                                                             
                                                                                                    
   TITEL  = PAW_RPBE H 15Jun2001                                                                    
   LULTRA =        F    use ultrasoft PP ?                                                          
   IUNSCR =        0    unscreen: 0-lin 1-nonlin 2-no                                               
   RPACOR =     .000    partial core radius                                                         
   POMASS =    1.000; ZVAL   =    1.000    mass and valenz                                          
   RCORE  =    1.100    outmost cutoff radius                                                       
   RWIGS  =     .700; RWIGS  =     .370    wigner-seitz radius (au A)                               
   ENMAX  =  250.000; ENMIN  =  200.000 eV                                                          
   RCLOC  =     .701    cutoff for local pot                                                        
   LCOR   =        T    correct aug charges                                                         
   LPAW   =        T    paw PP                                                                      
   EAUG   =  400.000                                                                                
   RMAX   =    2.174    core radius for proj-oper                                                   
   RAUG   =    1.200    factor for augmentation sphere                                              
   RDEP   =    1.112    radius for radial grids                                                     
   QCUT   =   -5.749; QGAM   =   11.498    optimization parameters                                  
                                                                                                    
   Description                                                                                      
     l     E      TYP  RCUT    TYP  RCUT                                                            
     0   .000     23  1.100                                                                         
     0   .500     23  1.100                                                                         
     1  -.300     23  1.100                                                                         
  local pseudopotential read in
  atomic valenz-charges read in
  non local Contribution for L=           0  read in
    real space projection operators read in
  non local Contribution for L=           0  read in
    real space projection operators read in
  non local Contribution for L=           1  read in
    real space projection operators read in
    PAW grid and wavefunctions read in
 
   number of l-projection  operators is LMAX  =           3
   number of lm-projection operators is LMMAX =           5
 
 PAW_RPBE O 08Apr2002                   :
 energy of atom  1       EATOM= -432.3788
 kinetic energy error for atom=    0.0041 (will be added to EATOM!!)
 PAW_RPBE H 15Jun2001                   :
 energy of atom  2       EATOM=  -12.4884
 kinetic energy error for atom=    0.0002 (will be added to EATOM!!)
 
 
 POSCAR: H2O _2
  positions in cartesian coordinates
  No initial velocities read in
 exchange correlation table for  LEXCH =        8
   RHO(1)=    0.500       N(1)  =     2000
   RHO(2)=  100.500       N(2)  =     4000
 


--------------------------------------------------------------------------------------------------------


 ion  position               nearest neighbor table
   1  0.000  0.000  0.000-   2 0.95   3 0.95
   2  0.073  0.905  0.000-   1 0.95
   3  0.073  0.095  0.000-   1 0.95
 
  LATTYP: Found a simple cubic cell.
 ALAT       =     7.9377000000
  
  Lattice vectors:
  
 A1 = (   7.9377000000,   0.0000000000,   0.0000000000)
 A2 = (   0.0000000000,   7.9377000000,   0.0000000000)
 A3 = (   0.0000000000,   0.0000000000,   7.9377000000)


Analysis of symmetry for initial positions (statically):
=====================================================================
 Subroutine PRICEL returns:
 Original cell was already a primitive cell.
 

 Routine SETGRP: Setting up the symmetry group for a 
 simple cubic supercell.


 Subroutine GETGRP returns: Found  4 space group operations
 (whereof  4 operations were pure point group operations)
 out of a pool of 48 trial point group operations.


The static configuration has the point symmetry C_2v.


Analysis of symmetry for dynamics (positions and initial velocities):
=====================================================================
 Subroutine PRICEL returns:
 Original cell was already a primitive cell.
 

 Routine SETGRP: Setting up the symmetry group for a 
 simple cubic supercell.


 Subroutine GETGRP returns: Found  4 space group operations
 (whereof  4 operations were pure point group operations)
 out of a pool of 48 trial point group operations.


The dynamic configuration has the point symmetry C_2v.


Analysis of constrained symmetry for selective dynamics:
=====================================================================
 Subroutine PRICEL returns:
 Original cell was already a primitive cell.
 

 Routine SETGRP: Setting up the symmetry group for a 
 simple cubic supercell.


 Subroutine GETGRP returns: Found  4 space group operations
 (whereof  4 operations were pure point group operations)
 out of a pool of 48 trial point group operations.


The constrained configuration has the point symmetry C_2v.


 Subroutine INISYM returns: Found  4 space group operations
 (whereof  4 operations are pure point group operations),
 and found     1 'primitive' translations


----------------------------------------------------------------------------------------

                                     Primitive cell                                     

  volume of cell :     500.1313

  direct lattice vectors                    reciprocal lattice vectors
     7.937700000  0.000000000  0.000000000     0.125981078  0.000000000  0.000000000
     0.000000000  7.937700000  0.000000000     0.000000000  0.125981078  0.000000000
     0.000000000  0.000000000  7.937700000     0.000000000  0.000000000  0.125981078

  length of vectors
     7.937700000  7.937700000  7.937700000     0.125981078  0.125981078  0.125981078

  position of ions in fractional coordinates (direct lattice)
     0.000000000  0.000000000  0.000000000
     0.073333333  0.904666667  0.000000000
     0.073333333  0.095333333  0.000000000

  ion indices of the primitive-cell ions
   primitive index   ion index
                 1           1
                 2           2
                 3           3

----------------------------------------------------------------------------------------

 
 
 KPOINTS: Gamma-point only                        

Automatic generation of k-mesh.
 Grid dimensions read from file:
 generate k-points for:    1    1    1

 Generating k-lattice:

  Cartesian coordinates                     Fractional coordinates (reciprocal lattice)
     0.125981078  0.000000000  0.000000000     1.000000000  0.000000000  0.000000000
     0.000000000  0.125981078  0.000000000     0.000000000  1.000000000  0.000000000
     0.000000000  0.000000000  0.125981078     0.000000000  0.000000000  1.000000000

  Length of vectors
     0.125981078  0.125981078  0.125981078

  Shift w.r.t. Gamma in fractional coordinates (k-lattice)
     0.000000000  0.000000000  0.000000000

 
 Subroutine IBZKPT returns following result:
 ===========================================
 
 Found      1 irreducible k-points:
 
 Following reciprocal coordinates:
            Coordinates               Weight
  0.000000  0.000000  0.000000      1.000000
 
 Following cartesian coordinates:
            Coordinates               Weight
  0.000000  0.000000  0.000000      1.000000
 


--------------------------------------------------------------------------------------------------------




 Dimension of arrays:
   k-points           NKPTS =      1   k-points in BZ     NKDIM =      1   number of bands    NBANDS=      8
   number of dos      NEDOS =    301   number of ions     NIONS =      3
   non local maximal  LDIM  =      4   non local SUM 2l+1 LMDIM =      8
   total plane-waves  NPLWV = 175616
   max r-space proj   IRMAX =      1   max aug-charges    IRDMAX=   4755
   dimension x,y,z NGX =    56 NGY =   56 NGZ =   56
   dimension x,y,z NGXF=   112 NGYF=  112 NGZF=  112
   support grid    NGXF=   112 NGYF=  112 NGZF=  112
   ions per type =               1   2
   NGX,Y,Z   is equivalent  to a cutoff of  11.73, 11.73, 11.73 a.u.
   NGXF,Y,Z  is equivalent  to a cutoff of  23.46, 23.46, 23.46 a.u.

 SYSTEM =  unknown system                          
 POSCAR =  H2O _2                                  

 Startparameter for this run:
   NWRITE =      2    write-flag & timer
   PREC   = normal    normal or accurate (medium, high low for compatibility)
   ISTART =      0    job   : 0-new  1-cont  2-samecut
   ICHARG =      2    charge: 1-file 2-atom 10-const
   ISPIN  =      1    spin polarized calculation?
   LNONCOLLINEAR =      F non collinear calculations
   LSORBIT =      F    spin-orbit coupling
   INIWAV =      1    electr: 0-lowe 1-rand  2-diag
   LASPH  =      F    aspherical Exc in radial PAW
 Electronic Relaxation 1
   ENCUT  =  800.0 eV  58.80 Ry    7.67 a.u.  18.31 18.31 18.31*2*pi/ulx,y,z
   ENINI  =  800.0     initial cutoff
   ENAUG  =  605.4 eV  augmentation charge cutoff
   NELM   =     60;   NELMIN=  2; NELMDL= -5     # of ELM steps 
   EDIFF  = 0.1E-03   stopping-criterion for ELM
   LREAL  =      F    real-space projection
   NLSPLINE    = F    spline interpolate recip. space projectors
   LCOMPAT=      F    compatible to vasp.4.4
   GGA_COMPAT  = T    GGA compatible to vasp.4.4-vasp.4.6
   LMAXPAW     = -100 max onsite density
   LMAXMIX     =    2 max onsite mixed and CHGCAR
   VOSKOWN=      0    Vosko Wilk Nusair interpolation
   ROPT   =    0.00000   0.00000
 Ionic relaxation
   EDIFFG = -.2E-01   stopping-criterion for IOM
   NSW    =     20    number of steps for IOM
   NBLOCK =      1;   KBLOCK =     20    inner block; outer block 
   IBRION =      1    ionic relax: 0-MD 1-quasi-New 2-CG
   NFREE  =      2    steps in history (QN), initial steepest desc. (CG)
   ISIF   =      2    stress and relaxation
   IWAVPR =     11    prediction:  0-non 1-charg 2-wave 3-comb
   ISYM   =      2    0-nonsym 1-usesym 2-fastsym
   LCORR  =      T    Harris-Foulkes like correction to forces

   POTIM  = 0.5000    time-step for ionic-motion
   TEIN   =    0.0    initial temperature
   TEBEG  =    0.0;   TEEND  =   0.0 temperature during run
   SMASS  =  -3.00    Nose mass-parameter (am)
   estimated Nose-frequenzy (Omega)   =  0.10E-29 period in steps = 0.13E+47 mass=  -0.144E-26a.u.
   SCALEE = 1.0000    scale energy and forces
   NPACO  =    256;   APACO  = 10.0  distance and # of slots for P.C.
   PSTRESS=    0.0 pullay stress

  Mass of Ions in am
   POMASS =  16.00  1.00
  Ionic Valenz
   ZVAL   =   6.00  1.00
  Atomic Wigner-Seitz radii
   RWIGS  =  -1.00 -1.00
  virtual crystal weights 
   VCA    =   1.00  1.00
   NELECT =       8.0000    total number of electrons
   NUPDOWN=      -1.0000    fix difference up-down

 DOS related values:
   EMIN   =  10.00;   EMAX   =-10.00  energy-range for DOS
   EFERMI =   0.00
   ISMEAR =     0;   SIGMA  =   0.10  broadening in eV -4-tet -1-fermi 0-gaus

 Electronic relaxation 2 (details)
   IALGO  =     38    algorithm
   LDIAG  =      T    sub-space diagonalisation (order eigenvalues)
   LSUBROT=      F    optimize rotation matrix (better conditioning)
   TURBO    =      0    0=normal 1=particle mesh
   IRESTART =      0    0=no restart 2=restart with 2 vectors
   NREBOOT  =      0    no. of reboots
   NMIN     =      0    reboot dimension
   EREF     =   0.00    reference energy to select bands
   IMIX   =      4    mixing-type and parameters
     AMIX     =   0.40;   BMIX     =  1.00
     AMIX_MAG =   1.60;   BMIX_MAG =  1.00
     AMIN     =   0.10
     WC   =   100.;   INIMIX=   1;  MIXPRE=   1;  MAXMIX= -45

 Intra band minimization:
   WEIMIN = 0.0010     energy-eigenvalue tresh-hold
   EBREAK =  0.31E-05  absolut break condition
   DEPER  =   0.30     relativ break condition  

   TIME   =   0.40     timestep for ELM

  volume/ion in A,a.u.               =     166.71      1125.02
  Fermi-wavevector in a.u.,A,eV,Ry     =   0.412487  0.779487  2.314969  0.170145
  Thomas-Fermi vector in A             =   1.369490
 
 Write flags
   LWAVE        =      T    write WAVECAR
   LDOWNSAMPLE  =      F    k-point downsampling of WAVECAR
   LCHARG       =      T    write CHGCAR
   LVTOT        =      F    write LOCPOT, total local potential
   LVHAR        =      F    write LOCPOT, Hartree potential only
   LELF         =      F    write electronic localiz. function (ELF)
   LORBIT       =      0    0 simple, 1 ext, 2 COOP (PROOUT), +10 PAW based schemes


 Dipole corrections
   LMONO  =      F    monopole corrections only (constant potential shift)
   LDIPOL =      F    correct potential (dipole corrections)
   IDIPOL =      0    1-x, 2-y, 3-z, 4-all directions 
   EPSILON=  1.0000000 bulk dielectric constant

 Exchange correlation treatment:
   GGA     =    --    GGA type
   LEXCH   =     8    internal setting for exchange type
   LIBXC   =     F    Libxc                    
   VOSKOWN =     0    Vosko Wilk Nusair interpolation
   LHFCALC =     F    Hartree Fock is set to
   LHFONE  =     F    Hartree Fock one center treatment
   AEXX    =    0.0000 exact exchange contribution

 Linear response parameters
   LEPSILON=     F    determine dielectric tensor
   LRPA    =     F    only Hartree local field effects (RPA)
   LNABLA  =     F    use nabla operator in PAW spheres
   LVEL    =     F    velocity operator in full k-point grid
   CSHIFT  =0.1000    complex shift for real part using Kramers Kronig
   OMEGAMAX=  -1.0    maximum frequency
   DEG_THRESHOLD= 0.2000000E-02 threshold for treating states as degnerate
   RTIME   =   -0.100 relaxation time in fs
  (WPLASMAI=    0.000 imaginary part of plasma frequency in eV, 0.658/RTIME)
   DFIELD  = 0.0000000 0.0000000 0.0000000 field for delta impulse in time
 
  Optional k-point grid parameters
   LKPOINTS_OPT  =     F    use optional k-point grid
   KPOINTS_OPT_MODE=     1    mode for optional k-point grid
 
 Orbital magnetization related:
   ORBITALMAG=     F  switch on orbital magnetization
   LCHIMAG   =     F  perturbation theory with respect to B field
   DQ        =  0.001000  dq finite difference perturbation B field
   LLRAUG    =     F  two centre corrections for induced B field



--------------------------------------------------------------------------------------------------------


 quasi-Newton-method for relaxation of ions
   using selective dynamics as specified on POSCAR
   WARNING: If single coordinates had been selected the selection of coordinates
            is made according to the corresponding   d i r e c t   coordinates!
            Don't support selection of single cartesian coordinates -- sorry ...
  !
 charge density and potential will be updated during run
 non-spin polarized calculation
 Variant of blocked Davidson
 Davidson routine will perform the subspace rotation
 perform sub-space diagonalisation
    after iterative eigenvector-optimisation
 modified Broyden-mixing scheme, WC =      100.0
 initial mixing is a Kerker type mixing with AMIX =  0.4000 and BMIX =      1.0000
 Hartree-type preconditioning will be used
 using additional bands            4
 reciprocal scheme for non local part
 calculate Harris-corrections to forces 
   (improved forces if not selfconsistent)
 use gradient corrections 
 use of overlap-Matrix (Vanderbilt PP)
 Gauss-broadening in eV      SIGMA  =   0.10


--------------------------------------------------------------------------------------------------------


  energy-cutoff  :      800.00
  volume of cell :      500.13
      direct lattice vectors                 reciprocal lattice vectors
     7.937700000  0.000000000  0.000000000     0.125981078  0.000000000  0.000000000
     0.000000000  7.937700000  0.000000000     0.000000000  0.125981078  0.000000000
     0.000000000  0.000000000  7.937700000     0.000000000  0.000000000  0.125981078

  length of vectors
     7.937700000  7.937700000  7.937700000     0.125981078  0.125981078  0.125981078


 
 k-points in units of 2pi/SCALE and weight: Gamma-point only                        
   0.00000000  0.00000000  0.00000000       1.000
 
 k-points in reciprocal lattice and weights: Gamma-point only                        
   0.00000000  0.00000000  0.00000000       1.000
 
 position of ions in fractional coordinates (direct lattice) 
   0.00000000  0.00000000  0.00000000
   0.07333333  0.90466667  0.00000000
   0.07333333  0.09533333  0.00000000
 
 position of ions in cartesian coordinates  (Angst):
   0.00000000  0.00000000  0.00000000
   0.58209800  7.18097260  0.00000000
   0.58209800  0.75672740  0.00000000
 


--------------------------------------------------------------------------------------------------------


 use serial FFT for orbitals x direction half grid
 k-point   1 :   0.0000 0.0000 0.0000  plane waves:   12839

 maximum and minimum number of plane-waves per node :     12839    12839

 maximum number of plane-waves:     12839
 maximum index in each direction: 
   IXMAX=   18   IYMAX=   18   IZMAX=   18
   IXMIN=    0   IYMIN=  -18   IZMIN=  -18


 serial   3D FFT for wavefunctions
 parallel 3D FFT for charge:
    minimum data exchange during FFTs selected (reduces bandwidth)


 total amount of memory used by VASP MPI-rank0   169329. kBytes
=======================================================================

   base      :      30000. kBytes
   nonl-proj :       2259. kBytes
   fftplans  :      48668. kBytes
   grid      :      86754. kBytes
   one-center:          4. kBytes
   wavefun   :       1644. kBytes
 
     INWAV:  cpu time      0.0000: real time      0.0000
 Broyden mixing: mesh for mixing (old mesh)
   NGX = 37   NGY = 37   NGZ = 37
  (NGX  =112   NGY  =112   NGZ  =112)
  gives a total of  50653 points

 initial charge density was supplied:
 charge density of overlapping atoms calculated
 number of electron       8.0000000 magnetization 
 keeping initial charge density in first step


--------------------------------------------------------------------------------------------------------


 Maximum index for augmentation-charges         4385 (set IRDMAX)


--------------------------------------------------------------------------------------------------------


 First call to EWALD:  gamma=   0.223
 Maximum number of real-space cells 3x 3x 3
 Maximum number of reciprocal cells 3x 3x 3

    FEWALD:  cpu time      0.0014: real time      0.0014


--------------------------------------- Iteration      1(   1)  ---------------------------------------


    POTLOK:  cpu time      0.5382: real time      0.5396
    SETDIJ:  cpu time      0.0032: real time      0.0032
     EDDAV:  cpu time      0.1406: real time      0.1409
       DOS:  cpu time      0.0002: real time      0.0002
    --------------------------------------------
      LOOP:  cpu time      0.6822: real time      0.6840

 eigenvalue-minimisations  :    16
 total energy-change (2. order) : 0.7434752E+02  (-0.1911900E+03)
 number of electron       8.0000000 magnetization 
 augmentation part        8.0000000 magnetization 

 Free energy of the ion-electron system (eV)
  ---------------------------------------------------
  alpha Z        PSCENC =         0.44832783
  Ewald energy   TEWEN  =        26.60306768
  -Hartree energ DENC   =      -386.12288572
  -exchange      EXHF   =         0.00000000
  -V(xc)+E(xc)   XCENC  =        32.30058035
  PAW double counting   =       247.56105404     -249.42875511
  entropy T*S    EENTRO =        -0.04341729
  eigenvalues    EBANDS =       -54.32148185
  atomic energy  EATOM  =       457.35103127
  Solvation  Ediel_sol  =         0.00000000
  ---------------------------------------------------
  free energy    TOTEN  =        74.34752119 eV

  energy without entropy =       74.39093848  energy(sigma->0) =       74.36922983


--------------------------------------------------------------------------------------------------------




--------------------------------------- Iteration      1(   2)  ---------------------------------------


     EDDAV:  cpu time      0.1822: real time      0.1828
       DOS:  cpu time      0.0001: real time      0.0001
    --------------------------------------------
      LOOP:  cpu time      0.1823: real time      0.1829

 eigenvalue-minimisations  :    32
 total energy-change (2. order) :-0.6267747E+02  (-0.6233841E+02)
 number of electron       8.0000000 magnetization 
 augmentation part        8.0000000 magnetization 

 Free energy of the ion-electron system (eV)
  ---------------------------------------------------
  alpha Z        PSCENC =         0.44832783
  Ewald energy   TEWEN  =        26.60306768
  -Hartree energ DENC   =      -386.12288572
  -exchange      EXHF   =         0.00000000
  -V(xc)+E(xc)   XCENC  =        32.30058035
  PAW double counting   =       247.56105404     -249.42875511
  entropy T*S    EENTRO =        -0.00000000
  eigenvalues    EBANDS =      -117.04237263
  atomic energy  EATOM  =       457.35103127
  Solvation  Ediel_sol  =         0.00000000
  ---------------------------------------------------
  free energy    TOTEN  =        11.67004771 eV

  energy without entropy =       11.67004771  energy(sigma->0) =       11.67004771


--------------------------------------------------------------------------------------------------------




--------------------------------------- Iteration      1(   3)  ---------------------------------------


     EDDAV:  cpu time      0.1288: real time      0.1292
       DOS:  cpu time      0.0001: real time      0.0001
    --------------------------------------------
      LOOP:  cpu time      0.1289: real time      0.1294

 eigenvalue-minimisations  :    24
 total energy-change (2. order) :-0.2733804E+02  (-0.2733804E+02)
 number of electron       8.0000000 magnetization 
 augmentation part        8.0000000 magnetization 

 Free energy of the ion-electron system (eV)
  ---------------------------------------------------
  alpha Z        PSCENC =         0.44832783
  Ewald energy   TEWEN  =        26.60306768
  -Hartree energ DENC   =      -386.12288572
  -exchange      EXHF   =         0.00000000
  -V(xc)+E(xc)   XCENC  =        32.30058035
  PAW double counting   =       247.56105404     -249.42875511
  entropy T*S    EENTRO =        -0.00000000
  eigenvalues    EBANDS =      -144.38041743
  atomic energy  EATOM  =       457.35103127
  Solvation  Ediel_sol  =         0.00000000
  ---------------------------------------------------
  free energy    TOTEN  =       -15.66799710 eV

  energy without entropy =      -15.66799710  energy(sigma->0) =      -15.66799710


--------------------------------------------------------------------------------------------------------




--------------------------------------- Iteration      1(   4)  ---------------------------------------


     EDDAV:  cpu time      0.0969: real time      0.0973
       DOS:  cpu time      0.0001: real time      0.0001
    --------------------------------------------
      LOOP:  cpu time      0.0970: real time      0.0974

 eigenvalue-minimisations  :    16
 total energy-change (2. order) :-0.6965546E+00  (-0.6965546E+00)
 number of electron       8.0000000 magnetization 
 augmentation part        8.0000000 magnetization 

 Free energy of the ion-electron system (eV)
  ---------------------------------------------------
  alpha Z        PSCENC =         0.44832783
  Ewald energy   TEWEN  =        26.60306768
  -Hartree energ DENC   =      -386.12288572
  -exchange      EXHF   =         0.00000000
  -V(xc)+E(xc)   XCENC  =        32.30058035
  PAW double counting   =       247.56105404     -249.42875511
  entropy T*S    EENTRO =        -0.00000000
  eigenvalues    EBANDS =      -145.07697208
  atomic energy  EATOM  =       457.35103127
  Solvation  Ediel_sol  =         0.00000000
  ---------------------------------------------------
  free energy    TOTEN  =       -16.36455174 eV

  energy without entropy =      -16.36455174  energy(sigma->0) =      -16.36455174


--------------------------------------------------------------------------------------------------------




--------------------------------------- Iteration      1(   5)  ---------------------------------------


     EDDAV:  cpu time      0.1346: real time      0.1351
       DOS:  cpu time      0.0001: real time      0.0001
    CHARGE:  cpu time      0.0645: real time      0.0646
    MIXING:  cpu time      0.0259: real time      0.0260
    --------------------------------------------
      LOOP:  cpu time      0.2251: real time      0.2258

 eigenvalue-minimisations  :    24
 total energy-change (2. order) :-0.4440905E-02  (-0.4440905E-02)
 number of electron       8.0000018 magnetization 
 augmentation part        0.8467841 magnetization 

 Broyden mixing:
  rms(total) = 0.79862E+00    rms(broyden)= 0.79860E+00
  rms(prec ) = 0.12175E+01
  weight for this iteration     100.00

 Free energy of the ion-electron system (eV)
  ---------------------------------------------------
  alpha Z        PSCENC =         0.44832783
  Ewald energy   TEWEN  =        26.60306768
  -Hartree energ DENC   =      -386.12288572
  -exchange      EXHF   =         0.00000000
  -V(xc)+E(xc)   XCENC  =        32.30058035
  PAW double counting   =       247.56105404     -249.42875511
  entropy T*S    EENTRO =        -0.00000000
  eigenvalues    EBANDS =      -145.08141298
  atomic energy  EATOM  =       457.35103127
  Solvation  Ediel_sol  =         0.00000000
  ---------------------------------------------------
  free energy    TOTEN  =       -16.36899265 eV

  energy without entropy =      -16.36899265  energy(sigma->0) =      -16.36899265


--------------------------------------------------------------------------------------------------------




--------------------------------------- Iteration      1(   6)  ---------------------------------------


    POTLOK:  cpu time      0.5234: real time      0.5249
    SETDIJ:  cpu time      0.0027: real time      0.0027
     EDDAV:  cpu time      0.1206: real time      0.1208
       DOS:  cpu time      0.0001: real time      0.0001
    CHARGE:  cpu time      0.0438: real time      0.0439
    MIXING:  cpu time      0.0240: real time      0.0241
    --------------------------------------------
      LOOP:  cpu time      0.7146: real time      0.7165

 eigenvalue-minimisations  :    16
 total energy-change (2. order) : 0.1965454E+01  (-0.9809153E+00)
 number of electron       8.0000015 magnetization 
 augmentation part        0.7076465 magnetization 

 Broyden mixing:
  rms(total) = 0.30622E+00    rms(broyden)= 0.30620E+00
  rms(prec ) = 0.40468E+00
  weight for this iteration     100.00

 eigenvalues of (default mixing * dielectric matrix)
  average eigenvalue GAMMA=   0.9194
  0.9194

 Free energy of the ion-electron system (eV)
  ---------------------------------------------------
  alpha Z        PSCENC =         0.44832783
  Ewald energy   TEWEN  =        26.60306768
  -Hartree energ DENC   =      -410.79751196
  -exchange      EXHF   =         0.00000000
  -V(xc)+E(xc)   XCENC  =        33.67435048
  PAW double counting   =       302.99885255     -305.24345421
  entropy T*S    EENTRO =        -0.00000000
  eigenvalues    EBANDS =      -119.43820192
  atomic energy  EATOM  =       457.35103127
  Solvation  Ediel_sol  =         0.00000000
  ---------------------------------------------------
  free energy    TOTEN  =       -14.40353828 eV

  energy without entropy =      -14.40353828  energy(sigma->0) =      -14.40353828


--------------------------------------------------------------------------------------------------------




--------------------------------------- Iteration      1(   7)  ---------------------------------------


    POTLOK:  cpu time      0.5066: real time      0.5079
    SETDIJ:  cpu time      0.0025: real time      0.0025
     EDDAV:  cpu time      0.1463: real time      0.1467
       DOS:  cpu time      0.0001: real time      0.0001
    CHARGE:  cpu time      0.0466: real time      0.0467
    MIXING:  cpu time      0.0247: real time      0.0248
    --------------------------------------------
      LOOP:  cpu time      0.7268: real time      0.7287

 eigenvalue-minimisations  :    24
 total energy-change (2. order) : 0.1123393E+00  (-0.1506480E-01)
 number of electron       8.0000015 magnetization 
 augmentation part        0.7032774 magnetization 

 Broyden mixing:
  rms(total) = 0.19066E+00    rms(broyden)= 0.19066E+00
  rms(prec ) = 0.25578E+00
  weight for this iteration     100.00

 eigenvalues of (default mixing * dielectric matrix)
  average eigenvalue GAMMA=   1.7376
  1.0411  2.4342

 Free energy of the ion-electron system (eV)
  ---------------------------------------------------
  alpha Z        PSCENC =         0.44832783
  Ewald energy   TEWEN  =        26.60306768
  -Hartree energ DENC   =      -414.71280041
  -exchange      EXHF   =         0.00000000
  -V(xc)+E(xc)   XCENC  =        33.88357995
  PAW double counting   =       316.00488788     -318.21332939
  entropy T*S    EENTRO =        -0.00000000
  eigenvalues    EBANDS =      -115.65596379
  atomic energy  EATOM  =       457.35103127
  Solvation  Ediel_sol  =         0.00000000
  ---------------------------------------------------
  free energy    TOTEN  =       -14.29119899 eV

  energy without entropy =      -14.29119899  energy(sigma->0) =      -14.29119899


--------------------------------------------------------------------------------------------------------




--------------------------------------- Iteration      1(   8)  ---------------------------------------


    POTLOK:  cpu time      0.5145: real time      0.5159
    SETDIJ:  cpu time      0.0025: real time      0.0025
     EDDAV:  cpu time      0.1425: real time      0.1428
       DOS:  cpu time      0.0001: real time      0.0001
    CHARGE:  cpu time      0.0450: real time      0.0451
    MIXING:  cpu time      0.0247: real time      0.0248
    --------------------------------------------
      LOOP:  cpu time      0.7293: real time      0.7312

 eigenvalue-minimisations  :    24
 total energy-change (2. order) : 0.8911112E-01  (-0.7216678E-02)
 number of electron       8.0000015 magnetization 
 augmentation part        0.7017871 magnetization 

 Broyden mixing:
  rms(total) = 0.21255E-01    rms(broyden)= 0.21254E-01
  rms(prec ) = 0.52187E-01
  weight for this iteration     100.00

 eigenvalues of (default mixing * dielectric matrix)
  average eigenvalue GAMMA=   1.5144
  2.3542  1.0283  1.1608

 Free energy of the ion-electron system (eV)
  ---------------------------------------------------
  alpha Z        PSCENC =         0.44832783
  Ewald energy   TEWEN  =        26.60306768
  -Hartree energ DENC   =      -420.16057351
  -exchange      EXHF   =         0.00000000
  -V(xc)+E(xc)   XCENC  =        34.19621810
  PAW double counting   =       334.14589305     -336.30810282
  entropy T*S    EENTRO =        -0.00000000
  eigenvalues    EBANDS =      -110.47794946
  atomic energy  EATOM  =       457.35103127
  Solvation  Ediel_sol  =         0.00000000
  ---------------------------------------------------
  free energy    TOTEN  =       -14.20208787 eV

  energy without entropy =      -14.20208787  energy(sigma->0) =      -14.20208787


--------------------------------------------------------------------------------------------------------




--------------------------------------- Iteration      1(   9)  ---------------------------------------


    POTLOK:  cpu time      0.4838: real time      0.4851
    SETDIJ:  cpu time      0.0025: real time      0.0025
     EDDAV:  cpu time      0.1271: real time      0.1274
       DOS:  cpu time      0.0001: real time      0.0001
    CHARGE:  cpu time      0.0401: real time      0.0402
    MIXING:  cpu time      0.0344: real time      0.0345
    --------------------------------------------
      LOOP:  cpu time      0.6880: real time      0.6899

 eigenvalue-minimisations  :    24
 total energy-change (2. order) :-0.3629934E-02  (-0.4316344E-03)
 number of electron       8.0000015 magnetization 
 augmentation part        0.6991381 magnetization 

 Broyden mixing:
  rms(total) = 0.13909E-01    rms(broyden)= 0.13909E-01
  rms(prec ) = 0.36470E-01
  weight for this iteration     100.00

 eigenvalues of (default mixing * dielectric matrix)
  average eigenvalue GAMMA=   1.9038
  0.9930  0.9930  3.1064  2.5230

 Free energy of the ion-electron system (eV)
  ---------------------------------------------------
  alpha Z        PSCENC =         0.44832783
  Ewald energy   TEWEN  =        26.60306768
  -Hartree energ DENC   =      -420.83294502
  -exchange      EXHF   =         0.00000000
  -V(xc)+E(xc)   XCENC  =        34.21609533
  PAW double counting   =       332.64431505     -334.81058606
  entropy T*S    EENTRO =        -0.00000000
  eigenvalues    EBANDS =      -109.82502388
  atomic energy  EATOM  =       457.35103127
  Solvation  Ediel_sol  =         0.00000000
  ---------------------------------------------------
  free energy    TOTEN  =       -14.20571780 eV

  energy without entropy =      -14.20571780  energy(sigma->0) =      -14.20571780


--------------------------------------------------------------------------------------------------------




--------------------------------------- Iteration      1(  10)  ---------------------------------------


    POTLOK:  cpu time      0.4865: real time      0.4879
    SETDIJ:  cpu time      0.0025: real time      0.0025
     EDDAV:  cpu time      0.1035: real time      0.1038
       DOS:  cpu time      0.0001: real time      0.0001
    CHARGE:  cpu time      0.0474: real time      0.0475
    MIXING:  cpu time      0.0272: real time      0.0272
    --------------------------------------------
      LOOP:  cpu time      0.6671: real time      0.6690

 eigenvalue-minimisations  :    16
 total energy-change (2. order) :-0.8733860E-02  (-0.4062154E-03)
 number of electron       8.0000015 magnetization 
 augmentation part        0.6997924 magnetization 

 Broyden mixing:
  rms(total) = 0.65125E-02    rms(broyden)= 0.65124E-02
  rms(prec ) = 0.13574E-01
  weight for this iteration     100.00

 eigenvalues of (default mixing * dielectric matrix)
  average eigenvalue GAMMA=   2.0953
  3.6235  1.0011  1.0011  2.4254  2.4254

 Free energy of the ion-electron system (eV)
  ---------------------------------------------------
  alpha Z        PSCENC =         0.44832783
  Ewald energy   TEWEN  =        26.60306768
  -Hartree energ DENC   =      -421.46213448
  -exchange      EXHF   =         0.00000000
  -V(xc)+E(xc)   XCENC  =        34.21849099
  PAW double counting   =       329.17630583     -331.33582475
  entropy T*S    EENTRO =        -0.00000000
  eigenvalues    EBANDS =      -109.21371603
  atomic energy  EATOM  =       457.35103127
  Solvation  Ediel_sol  =         0.00000000
  ---------------------------------------------------
  free energy    TOTEN  =       -14.21445166 eV

  energy without entropy =      -14.21445166  energy(sigma->0) =      -14.21445166


--------------------------------------------------------------------------------------------------------




--------------------------------------- Iteration      1(  11)  ---------------------------------------


    POTLOK:  cpu time      0.5082: real time      0.5096
    SETDIJ:  cpu time      0.0028: real time      0.0028
     EDDAV:  cpu time      0.1002: real time      0.1004
       DOS:  cpu time      0.0001: real time      0.0001
    CHARGE:  cpu time      0.0432: real time      0.0433
    MIXING:  cpu time      0.0387: real time      0.0388
    --------------------------------------------
      LOOP:  cpu time      0.6933: real time      0.6951

 eigenvalue-minimisations  :    16
 total energy-change (2. order) :-0.7350626E-02  (-0.4946802E-03)
 number of electron       8.0000015 magnetization 
 augmentation part        0.6974697 magnetization 

 Broyden mixing:
  rms(total) = 0.95487E-02    rms(broyden)= 0.95486E-02
  rms(prec ) = 0.14638E-01
  weight for this iteration     100.00

 eigenvalues of (default mixing * dielectric matrix)
  average eigenvalue GAMMA=   2.0473
  4.1953  2.8489  2.3984  0.9999  0.9999  0.8413

 Free energy of the ion-electron system (eV)
  ---------------------------------------------------
  alpha Z        PSCENC =         0.44832783
  Ewald energy   TEWEN  =        26.60306768
  -Hartree energ DENC   =      -422.02715019
  -exchange      EXHF   =         0.00000000
  -V(xc)+E(xc)   XCENC  =        34.24157294
  PAW double counting   =       331.16824063     -333.33243275
  entropy T*S    EENTRO =        -0.00000000
  eigenvalues    EBANDS =      -108.67445969
  atomic energy  EATOM  =       457.35103127
  Solvation  Ediel_sol  =         0.00000000
  ---------------------------------------------------
  free energy    TOTEN  =       -14.22180229 eV

  energy without entropy =      -14.22180229  energy(sigma->0) =      -14.22180229


--------------------------------------------------------------------------------------------------------




--------------------------------------- Iteration      1(  12)  ---------------------------------------


    POTLOK:  cpu time      0.4848: real time      0.4862
    SETDIJ:  cpu time      0.0025: real time      0.0025
     EDDAV:  cpu time      0.1729: real time      0.1733
       DOS:  cpu time      0.0001: real time      0.0001
    CHARGE:  cpu time      0.0478: real time      0.0479
    MIXING:  cpu time      0.0284: real time      0.0285
    --------------------------------------------
      LOOP:  cpu time      0.7365: real time      0.7385

 eigenvalue-minimisations  :    32
 total energy-change (2. order) :-0.8606385E-03  (-0.1213894E-03)
 number of electron       8.0000015 magnetization 
 augmentation part        0.6989510 magnetization 

 Broyden mixing:
  rms(total) = 0.20533E-02    rms(broyden)= 0.20532E-02
  rms(prec ) = 0.35503E-02
  weight for this iteration     100.00

 eigenvalues of (default mixing * dielectric matrix)
  average eigenvalue GAMMA=   2.3126
  5.1633  2.9236  2.9236  2.2458  1.0386  0.9465  0.9465

 Free energy of the ion-electron system (eV)
  ---------------------------------------------------
  alpha Z        PSCENC =         0.44832783
  Ewald energy   TEWEN  =        26.60306768
  -Hartree energ DENC   =      -421.69072693
  -exchange      EXHF   =         0.00000000
  -V(xc)+E(xc)   XCENC  =        34.21997226
  PAW double counting   =       330.30675258     -332.46770791
  entropy T*S    EENTRO =        -0.00000000
  eigenvalues    EBANDS =      -108.99337970
  atomic energy  EATOM  =       457.35103127
  Solvation  Ediel_sol  =         0.00000000
  ---------------------------------------------------
  free energy    TOTEN  =       -14.22266293 eV

  energy without entropy =      -14.22266293  energy(sigma->0) =      -14.22266293


--------------------------------------------------------------------------------------------------------




--------------------------------------- Iteration      1(  13)  ---------------------------------------


    POTLOK:  cpu time      0.4707: real time      0.4719
    SETDIJ:  cpu time      0.0025: real time      0.0025
     EDDAV:  cpu time      0.1425: real time      0.1429
       DOS:  cpu time      0.0001: real time      0.0001
    CHARGE:  cpu time      0.0402: real time      0.0403
    MIXING:  cpu time      0.0383: real time      0.0384
    --------------------------------------------
      LOOP:  cpu time      0.6943: real time      0.6961

 eigenvalue-minimisations  :    24
 total energy-change (2. order) :-0.1212897E-02  (-0.2153622E-04)
 number of electron       8.0000015 magnetization 
 augmentation part        0.6992659 magnetization 

 Broyden mixing:
  rms(total) = 0.14085E-02    rms(broyden)= 0.14085E-02
  rms(prec ) = 0.18277E-02
  weight for this iteration     100.00

 eigenvalues of (default mixing * dielectric matrix)
  average eigenvalue GAMMA=   2.1950
  5.6970  3.1683  2.5781  2.2231  1.0831  0.9548  0.9548  0.9007

 Free energy of the ion-electron system (eV)
  ---------------------------------------------------
  alpha Z        PSCENC =         0.44832783
  Ewald energy   TEWEN  =        26.60306768
  -Hartree energ DENC   =      -421.60789682
  -exchange      EXHF   =         0.00000000
  -V(xc)+E(xc)   XCENC  =        34.21444813
  PAW double counting   =       330.20648843     -332.36642518
  entropy T*S    EENTRO =        -0.00000000
  eigenvalues    EBANDS =      -109.07291716
  atomic energy  EATOM  =       457.35103127
  Solvation  Ediel_sol  =         0.00000000
  ---------------------------------------------------
  free energy    TOTEN  =       -14.22387582 eV

  energy without entropy =      -14.22387582  energy(sigma->0) =      -14.22387582


--------------------------------------------------------------------------------------------------------




--------------------------------------- Iteration      1(  14)  ---------------------------------------


    POTLOK:  cpu time      0.4774: real time      0.4788
    SETDIJ:  cpu time      0.0025: real time      0.0025
     EDDAV:  cpu time      0.1705: real time      0.1709
       DOS:  cpu time      0.0001: real time      0.0001
    --------------------------------------------
      LOOP:  cpu time      0.6505: real time      0.6523

 eigenvalue-minimisations  :    32
 total energy-change (2. order) :-0.7279419E-04  (-0.1247009E-05)
 number of electron       8.0000015 magnetization 
 augmentation part        0.6992659 magnetization 

 Free energy of the ion-electron system (eV)
  ---------------------------------------------------
  alpha Z        PSCENC =         0.44832783
  Ewald energy   TEWEN  =        26.60306768
  -Hartree energ DENC   =      -421.60857180
  -exchange      EXHF   =         0.00000000
  -V(xc)+E(xc)   XCENC  =        34.21440862
  PAW double counting   =       330.18662335     -332.34693488
  entropy T*S    EENTRO =        -0.00000000
  eigenvalues    EBANDS =      -109.07190068
  atomic energy  EATOM  =       457.35103127
  Solvation  Ediel_sol  =         0.00000000
  ---------------------------------------------------
  free energy    TOTEN  =       -14.22394862 eV

  energy without entropy =      -14.22394862  energy(sigma->0) =      -14.22394862


--------------------------------------------------------------------------------------------------------




 average (electrostatic) potential at core
  the test charge radii are     0.7215  0.5201
  (the norm of the test charge is              1.0000)
       1 -80.4025       2 -44.7664       3 -44.7664
 
 
 
 E-fermi :  -6.5439     XC(G=0):  -0.9850     alpha+bet : -0.2602

 Fermi energy:        -6.5439145528

 k-point     1 :       0.0000    0.0000    0.0000
  band No.  band energies     occupation 
      1     -25.2996      2.00000
      2     -13.0932      2.00000
      3      -9.0907      2.00000
      4      -7.0525      2.00000
      5      -1.0121      0.00000
      6       1.1471      0.00000
      7       1.3022      0.00000
      8       1.8518      0.00000


--------------------------------------------------------------------------------------------------------


 soft charge-density along one line, spin component           1
         0         1         2         3         4         5         6         7         8         9
 total charge-density along one line
 
 pseudopotential strength for first ion, spin component:           1
 13.779  -0.523  -0.000   0.000  -0.125   0.000  -0.000   0.006
 -0.523   0.119   0.000  -0.000   0.015  -0.000   0.000  -0.003
 -0.000   0.000 -10.553  -0.000  -0.000   0.287   0.000   0.000
  0.000  -0.000  -0.000 -10.306   0.000   0.000   0.246  -0.000
 -0.125   0.015  -0.000   0.000 -10.450   0.000  -0.000   0.270
  0.000  -0.000   0.287   0.000   0.000   0.128  -0.000  -0.000
 -0.000   0.000   0.000   0.246  -0.000  -0.000   0.141   0.000
  0.006  -0.003   0.000  -0.000   0.270  -0.000   0.000   0.134
 total augmentation occupancy for first ion, spin component:           1
  1.843   0.166   0.000   0.000  -0.162   0.000   0.000   0.062
  0.166   0.039   0.000   0.000   0.182   0.000   0.000   0.031
  0.000   0.000   1.426   0.000   0.000   0.269   0.000   0.000
  0.000   0.000   0.000   1.810   0.000   0.000   0.096   0.000
 -0.162   0.182   0.000   0.000   1.585   0.000   0.000   0.200
  0.000   0.000   0.269   0.000   0.000   0.051   0.000   0.000
  0.000   0.000   0.000   0.096   0.000   0.000   0.005   0.000
  0.062   0.031   0.000   0.000   0.200   0.000   0.000   0.029


------------------------ aborting loop because EDIFF is reached ----------------------------------------


    CHARGE:  cpu time      0.0459: real time      0.0460
    FORLOC:  cpu time      0.0423: real time      0.0424
    FORNL :  cpu time      0.0093: real time      0.0094
    STRESS:  cpu time      0.0886: real time      0.0888
    FORHAR:  cpu time      0.1480: real time      0.1484
    MIXING:  cpu time      0.0307: real time      0.0308
    OFIELD:  cpu time      0.0001: real time      0.0001

  FORCE on cell =-STRESS in cart. coord.  units (eV):
  Direction    XX          YY          ZZ          XY          YZ          ZX
  --------------------------------------------------------------------------------------
  Alpha Z     0.44833     0.44833     0.44833
  Ewald      12.60061    69.29602   -55.29360    -0.00000    -0.00000     0.00000
  Hartree   141.38340   150.96804   129.24322    -0.00000    -0.00000    -0.00000
  E(xc)     -36.25854   -36.05597   -36.55001    -0.00000     0.00000     0.00000
  Local    -242.89441  -293.06700  -183.84001    -0.00000    -0.00000     0.00000
  n-local   -31.37657   -30.60610   -31.03144     0.00000    -0.00000     0.00000
  augment     6.80196     5.78958     8.21260    -0.00000     0.00000     0.00000
  Kinetic   149.84872   134.29222   168.80522    -0.00000    -0.00000     0.00000
  Fock        0.00000     0.00000     0.00000     0.00000     0.00000     0.00000
  -------------------------------------------------------------------------------------
  Total       0.55350     1.06512    -0.00570     0.00000     0.00000     0.00000
  in kB       1.77316     3.41214    -0.01825     0.00000     0.00000     0.00000
  external pressure =        1.72 kB  Pullay stress =        0.00 kB


 VOLUME and BASIS-vectors are now :
 -----------------------------------------------------------------------------
  energy-cutoff  :      800.00
  volume of cell :      500.13
      direct lattice vectors                 reciprocal lattice vectors
     7.937700000  0.000000000  0.000000000     0.125981078  0.000000000  0.000000000
     0.000000000  7.937700000  0.000000000     0.000000000  0.125981078  0.000000000
     0.000000000  0.000000000  7.937700000     0.000000000  0.000000000  0.125981078

  length of vectors
     7.937700000  7.937700000  7.937700000     0.125981078  0.125981078  0.125981078


 FORCES acting on ions
    electron-ion (+dipol)            ewald-force                    non-local-force                 convergence-correction
 -----------------------------------------------------------------------------------------------
   0.642E+02 -.178E-14 -.209E-14   -.115E+03 0.142E-13 0.210E-16   0.495E+02 -.543E-24 0.277E-21   -.403E-02 -.457E-13 -.552E-13
   -.517E+02 0.728E+02 0.143E-06   0.574E+02 -.807E+02 0.134E-16   -.516E+01 0.720E+01 0.258E-23   -.879E-03 0.683E-03 -.543E-14
   -.517E+02 -.728E+02 -.537E-07   0.574E+02 0.807E+02 0.118E-16   -.516E+01 -.720E+01 -.198E-23   -.879E-03 -.683E-03 -.410E-14
 -----------------------------------------------------------------------------------------------
   -.392E+02 0.853E-13 0.896E-07   -.711E-14 0.000E+00 0.461E-16   0.392E+02 0.000E+00 0.278E-21   -.579E-02 -.463E-13 -.647E-13
 
 
 POSITION                                       TOTAL-FORCE (eV/Angst)
 -----------------------------------------------------------------------------------
      0.00000      0.00000      0.00000        -1.036088      0.000000     -0.000000
      0.58210      7.18097      0.00000         0.518044     -0.709954      0.000000
      0.58210      0.75673      0.00000         0.518044      0.709954     -0.000000
 -----------------------------------------------------------------------------------
    total drift:                               -0.001069      0.000000      0.000000


--------------------------------------------------------------------------------------------------------



  FREE ENERGIE OF THE ION-ELECTRON SYSTEM (eV)
  ---------------------------------------------------
  free  energy   TOTEN  =       -14.22394862 eV

  energy  without entropy=      -14.22394862  energy(sigma->0) =      -14.22394862
 


--------------------------------------------------------------------------------------------------------


    POTLOK:  cpu time      0.4548: real time      0.4559


--------------------------------------------------------------------------------------------------------


 Quasi-Newton relaxation of ions (Broydens 2nd method)
  g(Force)  = 0.745E-01   g(Stress)= 0.000E+00

 Reset! Starting new Quasi-Newton update for ions 


--------------------------------------------------------------------------------------------------------


    WAVPRE:  cpu time      1.4822: real time      1.4995
    FEWALD:  cpu time      0.0003: real time      0.0003
    ORTHCH:  cpu time      0.0027: real time      0.0028
     LOOP+:  cpu time      9.9255: real time      9.9659


--------------------------------------- Iteration      2(   1)  ---------------------------------------


    POTLOK:  cpu time      0.4325: real time      0.4337
    SETDIJ:  cpu time      0.0026: real time      0.0026
     EDDAV:  cpu time      0.1145: real time      0.1147
       DOS:  cpu time      0.0001: real time      0.0001
    CHARGE:  cpu time      0.0367: real time      0.0368
    MIXING:  cpu time      0.0304: real time      0.0305
    --------------------------------------------
      LOOP:  cpu time      0.6168: real time      0.6184

 eigenvalue-minimisations  :    16
 total energy-change (2. order) : 0.3481029E-02  (-0.1583918E+00)
 number of electron       8.0000014 magnetization 
 augmentation part        0.6707035 magnetization 

 Broyden mixing:
  rms(total) = 0.82570E-01    rms(broyden)= 0.82568E-01
  rms(prec ) = 0.11245E+00
  weight for this iteration     100.00

 Free energy of the ion-electron system (eV)
  ---------------------------------------------------
  alpha Z        PSCENC =         0.44832783
  Ewald energy   TEWEN  =        18.57083187
  -Hartree energ DENC   =      -417.39791241
  -exchange      EXHF   =         0.00000000
  -V(xc)+E(xc)   XCENC  =        34.00900803
  PAW double counting   =       330.13475933     -332.29482342
  entropy T*S    EENTRO =        -0.00000000
  eigenvalues    EBANDS =      -105.04161730
  atomic energy  EATOM  =       457.35103127
  Solvation  Ediel_sol  =         0.00000000
  ---------------------------------------------------
  free energy    TOTEN  =       -14.22039479 eV

  energy without entropy =      -14.22039479  energy(sigma->0) =      -14.22039479


--------------------------------------------------------------------------------------------------------




--------------------------------------- Iteration      2(   2)  ---------------------------------------


    POTLOK:  cpu time      0.4108: real time      0.4119
    SETDIJ:  cpu time      0.0025: real time      0.0025
     EDDAV:  cpu time      0.1765: real time      0.1769
       DOS:  cpu time      0.0001: real time      0.0001
    CHARGE:  cpu time      0.0364: real time      0.0365
    MIXING:  cpu time      0.0226: real time      0.0227
    --------------------------------------------
      LOOP:  cpu time      0.6489: real time      0.6506

 eigenvalue-minimisations  :    32
 total energy-change (2. order) : 0.1212141E-01  (-0.7823987E-02)
 number of electron       8.0000014 magnetization 
 augmentation part        0.6793114 magnetization 

 Broyden mixing:
  rms(total) = 0.30322E-01    rms(broyden)= 0.30321E-01
  rms(prec ) = 0.35687E-01
  weight for this iteration     100.00

 eigenvalues of (default mixing * dielectric matrix)
  average eigenvalue GAMMA=   1.1562
  1.1562

 Free energy of the ion-electron system (eV)
  ---------------------------------------------------
  alpha Z        PSCENC =         0.44832783
  Ewald energy   TEWEN  =        18.57083187
  -Hartree energ DENC   =      -415.46300750
  -exchange      EXHF   =         0.00000000
  -V(xc)+E(xc)   XCENC  =        33.90043909
  PAW double counting   =       323.55591680     -325.68071904
  entropy T*S    EENTRO =        -0.00000000
  eigenvalues    EBANDS =      -106.89109370
  atomic energy  EATOM  =       457.35103127
  Solvation  Ediel_sol  =         0.00000000
  ---------------------------------------------------
  free energy    TOTEN  =       -14.20827338 eV

  energy without entropy =      -14.20827338  energy(sigma->0) =      -14.20827338


--------------------------------------------------------------------------------------------------------




--------------------------------------- Iteration      2(   3)  ---------------------------------------


    POTLOK:  cpu time      0.4059: real time      0.4071
    SETDIJ:  cpu time      0.0027: real time      0.0027
     EDDAV:  cpu time      0.1441: real time      0.1445
       DOS:  cpu time      0.0001: real time      0.0001
    CHARGE:  cpu time      0.0412: real time      0.0413
    MIXING:  cpu time      0.0180: real time      0.0181
    --------------------------------------------
      LOOP:  cpu time      0.6121: real time      0.6138

 eigenvalue-minimisations  :    24
 total energy-change (2. order) : 0.5201811E-03  (-0.1169083E-03)
 number of electron       8.0000014 magnetization 
 augmentation part        0.6802611 magnetization 

 Broyden mixing:
  rms(total) = 0.15541E-01    rms(broyden)= 0.15541E-01
  rms(prec ) = 0.18173E-01
  weight for this iteration     100.00

 eigenvalues of (default mixing * dielectric matrix)
  average eigenvalue GAMMA=   1.6524
  1.0964  2.2085

 Free energy of the ion-electron system (eV)
  ---------------------------------------------------
  alpha Z        PSCENC =         0.44832783
  Ewald energy   TEWEN  =        18.57083187
  -Hartree energ DENC   =      -415.29560387
  -exchange      EXHF   =         0.00000000
  -V(xc)+E(xc)   XCENC  =        33.89195538
  PAW double counting   =       321.15399316     -323.26882688
  entropy T*S    EENTRO =        -0.00000000
  eigenvalues    EBANDS =      -107.05946197
  atomic energy  EATOM  =       457.35103127
  Solvation  Ediel_sol  =         0.00000000
  ---------------------------------------------------
  free energy    TOTEN  =       -14.20775320 eV

  energy without entropy =      -14.20775320  energy(sigma->0) =      -14.20775320


--------------------------------------------------------------------------------------------------------




--------------------------------------- Iteration      2(   4)  ---------------------------------------


    POTLOK:  cpu time      0.4147: real time      0.4158
    SETDIJ:  cpu time      0.0025: real time      0.0025
     EDDAV:  cpu time      0.1415: real time      0.1419
       DOS:  cpu time      0.0001: real time      0.0001
    --------------------------------------------
      LOOP:  cpu time      0.5588: real time      0.5602

 eigenvalue-minimisations  :    24
 total energy-change (2. order) : 0.9008175E-04  (-0.5850426E-04)
 number of electron       8.0000014 magnetization 
 augmentation part        0.6802611 magnetization 

 Free energy of the ion-electron system (eV)
  ---------------------------------------------------
  alpha Z        PSCENC =         0.44832783
  Ewald energy   TEWEN  =        18.57083187
  -Hartree energ DENC   =      -415.33467362
  -exchange      EXHF   =         0.00000000
  -V(xc)+E(xc)   XCENC  =        33.89476887
  PAW double counting   =       319.02293832     -321.13100172
  entropy T*S    EENTRO =        -0.00000000
  eigenvalues    EBANDS =      -107.02988593
  atomic energy  EATOM  =       457.35103127
  Solvation  Ediel_sol  =         0.00000000
  ---------------------------------------------------
  free energy    TOTEN  =       -14.20766312 eV

  energy without entropy =      -14.20766312  energy(sigma->0) =      -14.20766312


--------------------------------------------------------------------------------------------------------




 average (electrostatic) potential at core
  the test charge radii are     0.7215  0.5201
  (the norm of the test charge is              1.0000)
       1 -80.3578       2 -44.2236       3 -44.2236
 
 
 
 E-fermi :  -6.4811     XC(G=0):  -1.0084     alpha+bet : -0.2602

 Fermi energy:        -6.4810791789

 k-point     1 :       0.0000    0.0000    0.0000
  band No.  band energies     occupation 
      1     -24.8267      2.00000
      2     -12.7076      2.00000
      3      -9.0215      2.00000
      4      -6.9592      2.00000
      5      -1.1577      0.00000
      6       1.1169      0.00000
      7       1.1298      0.00000
      8       1.7267      0.00000


--------------------------------------------------------------------------------------------------------


 soft charge-density along one line, spin component           1
         0         1         2         3         4         5         6         7         8         9
 total charge-density along one line
 
 pseudopotential strength for first ion, spin component:           1
 13.774  -0.523  -0.000  -0.000  -0.115   0.000   0.000   0.006
 -0.523   0.119   0.000   0.000   0.015  -0.000  -0.000  -0.002
 -0.000   0.000 -10.543   0.000  -0.000   0.289  -0.000   0.000
 -0.000   0.000   0.000 -10.313  -0.000  -0.000   0.250   0.000
 -0.115   0.015  -0.000  -0.000 -10.449   0.000   0.000   0.274
  0.000  -0.000   0.289  -0.000   0.000   0.127   0.000  -0.000
  0.000  -0.000  -0.000   0.250   0.000   0.000   0.139  -0.000
  0.006  -0.002   0.000   0.000   0.274  -0.000  -0.000   0.132
 total augmentation occupancy for first ion, spin component:           1
  1.848   0.146   0.000   0.000  -0.175   0.000   0.000   0.052
  0.146   0.035   0.000   0.000   0.175   0.000   0.000   0.028
  0.000   0.000   1.383   0.000   0.000   0.252   0.000   0.000
  0.000   0.000   0.000   1.810   0.000   0.000   0.091   0.000
 -0.175   0.175   0.000   0.000   1.547   0.000   0.000   0.190
  0.000   0.000   0.252   0.000   0.000   0.046   0.000   0.000
  0.000   0.000   0.000   0.091   0.000   0.000   0.005   0.000
  0.052   0.028   0.000   0.000   0.190   0.000   0.000   0.026


------------------------ aborting loop because EDIFF is reached ----------------------------------------


    CHARGE:  cpu time      0.0378: real time      0.0378
    FORLOC:  cpu time      0.0444: real time      0.0445
    FORNL :  cpu time      0.0092: real time      0.0092
    STRESS:  cpu time      0.0767: real time      0.0769
    FORHAR:  cpu time      0.1295: real time      0.1299
    MIXING:  cpu time      0.0237: real time      0.0238
    OFIELD:  cpu time      0.0001: real time      0.0001

  FORCE on cell =-STRESS in cart. coord.  units (eV):
  Direction    XX          YY          ZZ          XY          YZ          ZX
  --------------------------------------------------------------------------------------
  Alpha Z     0.44833     0.44833     0.44833
  Ewald       9.57869    64.31936   -55.32726     0.00000     0.00000     0.00000
  Hartree   139.19290   149.13480   126.94180    -0.00000    -0.00000    -0.00000
  E(xc)     -35.92595   -35.71930   -36.21649    -0.00000     0.00000     0.00000
  Local    -238.36940  -288.43547  -180.85559     0.00000    -0.00000    -0.00000
  n-local   -30.37993   -29.55637   -30.50749    -0.00000    -0.00000     0.00001
  augment     6.68000     5.73611     8.09360     0.00000     0.00000    -0.00000
  Kinetic   147.97454   132.46843   167.38557    -0.00000     0.00000    -0.00001
  Fock        0.00000     0.00000     0.00000     0.00000     0.00000     0.00000
  -------------------------------------------------------------------------------------
  Total      -0.80081    -1.60412    -0.03754     0.00000     0.00000     0.00000
  in kB      -2.56541    -5.13882    -0.12026     0.00000     0.00000     0.00000
  external pressure =       -2.61 kB  Pullay stress =        0.00 kB


 VOLUME and BASIS-vectors are now :
 -----------------------------------------------------------------------------
  energy-cutoff  :      800.00
  volume of cell :      500.13
      direct lattice vectors                 reciprocal lattice vectors
     7.937700000  0.000000000  0.000000000     0.125981078  0.000000000  0.000000000
     0.000000000  7.937700000  0.000000000     0.000000000  0.125981078  0.000000000
     0.000000000  0.000000000  7.937700000     0.000000000  0.000000000  0.125981078

  length of vectors
     7.937700000  7.937700000  7.937700000     0.125981078  0.125981078  0.125981078


 FORCES acting on ions
    electron-ion (+dipol)            ewald-force                    non-local-force                 convergence-correction
 -----------------------------------------------------------------------------------------------
   0.585E+02 -.296E-14 -.106E-14   -.105E+03 -.142E-13 0.670E-16   0.478E+02 -.641E-25 0.368E-21   -.879E-01 -.531E-13 -.199E-13
   -.487E+02 0.687E+02 -.944E-07   0.525E+02 -.739E+02 -.107E-16   -.440E+01 0.620E+01 0.846E-22   -.843E-02 0.299E-02 -.316E-14
   -.487E+02 -.687E+02 0.719E-07   0.525E+02 0.739E+02 -.101E-16   -.440E+01 -.620E+01 -.393E-22   -.843E-02 -.299E-02 -.600E-15
 -----------------------------------------------------------------------------------------------
   -.389E+02 0.114E-12 -.226E-07   0.711E-14 0.000E+00 0.461E-16   0.390E+02 0.000E+00 0.413E-21   -.105E+00 -.546E-13 -.237E-13
 
 
 POSITION                                       TOTAL-FORCE (eV/Angst)
 -----------------------------------------------------------------------------------
      0.00000      0.00000      0.00000         1.218503      0.000000     -0.000000
      0.60709      7.14672      0.00000        -0.609252      0.992934     -0.000000
      0.60709      0.79098      0.00000        -0.609252     -0.992934      0.000000
 -----------------------------------------------------------------------------------
    total drift:                                0.029437      0.000000     -0.000000


--------------------------------------------------------------------------------------------------------



  FREE ENERGIE OF THE ION-ELECTRON SYSTEM (eV)
  ---------------------------------------------------
  free  energy   TOTEN  =       -14.20766312 eV

  energy  without entropy=      -14.20766312  energy(sigma->0) =      -14.20766312
 
 d Force =-0.1197152E-01[-0.985E-01, 0.745E-01]  d Energy =-0.1628550E-01 0.431E-02
 d Force = 0.8039892E+01[ 0.769E+01, 0.839E+01]  d Ewald  = 0.8032236E+01 0.766E-02


--------------------------------------------------------------------------------------------------------


    POTLOK:  cpu time      0.4720: real time      0.4732


--------------------------------------------------------------------------------------------------------


 Quasi-Newton relaxation of ions (Broydens 2nd method)
  g(Force)  = 0.131E+00   g(Stress)= 0.000E+00

 retain information from N=  1 steps
 eigenvalues of (default step * inverse Hessian matrix)
  average eigenvalue of G=   0.4299
 eigenvalue spectrum of G is  0.4299


--------------------------------------------------------------------------------------------------------


    WAVPRE:  cpu time      0.1109: real time      0.1114
    FEWALD:  cpu time      0.0003: real time      0.0003
    ORTHCH:  cpu time      0.0027: real time      0.0028
     LOOP+:  cpu time      3.3483: real time      3.3577


--------------------------------------- Iteration      3(   1)  ---------------------------------------


    POTLOK:  cpu time      0.4299: real time      0.4311
    SETDIJ:  cpu time      0.0025: real time      0.0025
     EDDAV:  cpu time      0.1163: real time      0.1166
       DOS:  cpu time      0.0001: real time      0.0001
    CHARGE:  cpu time      0.0414: real time      0.0415
    MIXING:  cpu time      0.0156: real time      0.0157
    --------------------------------------------
      LOOP:  cpu time      0.6059: real time      0.6076

 eigenvalue-minimisations  :    16
 total energy-change (2. order) :-0.3440008E-01  (-0.5159461E-01)
 number of electron       8.0000015 magnetization 
 augmentation part        0.6953874 magnetization 

 Broyden mixing:
  rms(total) = 0.43828E-01    rms(broyden)= 0.43827E-01
  rms(prec ) = 0.59721E-01
  weight for this iteration     100.00

 Free energy of the ion-electron system (eV)
  ---------------------------------------------------
  alpha Z        PSCENC =         0.44832783
  Ewald energy   TEWEN  =        23.05042715
  -Hartree energ DENC   =      -417.66802649
  -exchange      EXHF   =         0.00000000
  -V(xc)+E(xc)   XCENC  =        34.00840742
  PAW double counting   =       318.69084938     -320.79683624
  entropy T*S    EENTRO =        -0.00000000
  eigenvalues    EBANDS =      -109.32633359
  atomic energy  EATOM  =       457.35103127
  Solvation  Ediel_sol  =         0.00000000
  ---------------------------------------------------
  free energy    TOTEN  =       -14.24215328 eV

  energy without entropy =      -14.24215328  energy(sigma->0) =      -14.24215328


--------------------------------------------------------------------------------------------------------




--------------------------------------- Iteration      3(   2)  ---------------------------------------


    POTLOK:  cpu time      0.4712: real time      0.4725
    SETDIJ:  cpu time      0.0025: real time      0.0025
     EDDAV:  cpu time      0.1700: real time      0.1704
       DOS:  cpu time      0.0001: real time      0.0001
    CHARGE:  cpu time      0.0399: real time      0.0400
    MIXING:  cpu time      0.0197: real time      0.0197
    --------------------------------------------
      LOOP:  cpu time      0.7034: real time      0.7053

 eigenvalue-minimisations  :    24
 total energy-change (2. order) : 0.3486378E-02  (-0.2071056E-02)
 number of electron       8.0000015 magnetization 
 augmentation part        0.6913010 magnetization 

 Broyden mixing:
  rms(total) = 0.17474E-01    rms(broyden)= 0.17473E-01
  rms(prec ) = 0.20869E-01
  weight for this iteration     100.00

 eigenvalues of (default mixing * dielectric matrix)
  average eigenvalue GAMMA=   1.2265
  1.2265

 Free energy of the ion-electron system (eV)
  ---------------------------------------------------
  alpha Z        PSCENC =         0.44832783
  Ewald energy   TEWEN  =        23.05042715
  -Hartree energ DENC   =      -418.69314486
  -exchange      EXHF   =         0.00000000
  -V(xc)+E(xc)   XCENC  =        34.06541627
  PAW double counting   =       322.15609335     -324.28100881
  entropy T*S    EENTRO =        -0.00000000
  eigenvalues    EBANDS =      -108.33580910
  atomic energy  EATOM  =       457.35103127
  Solvation  Ediel_sol  =         0.00000000
  ---------------------------------------------------
  free energy    TOTEN  =       -14.23866690 eV

  energy without entropy =      -14.23866690  energy(sigma->0) =      -14.23866690


--------------------------------------------------------------------------------------------------------




--------------------------------------- Iteration      3(   3)  ---------------------------------------


    POTLOK:  cpu time      0.4555: real time      0.4567
    SETDIJ:  cpu time      0.0025: real time      0.0025
     EDDAV:  cpu time      0.1438: real time      0.1441
       DOS:  cpu time      0.0001: real time      0.0001
    CHARGE:  cpu time      0.0386: real time      0.0387
    MIXING:  cpu time      0.0172: real time      0.0172
    --------------------------------------------
      LOOP:  cpu time      0.6577: real time      0.6594

 eigenvalue-minimisations  :    16
 total energy-change (2. order) : 0.1822613E-03  (-0.8415179E-04)
 number of electron       8.0000015 magnetization 
 augmentation part        0.6903041 magnetization 

 Broyden mixing:
  rms(total) = 0.84138E-02    rms(broyden)= 0.84136E-02
  rms(prec ) = 0.98315E-02
  weight for this iteration     100.00

 eigenvalues of (default mixing * dielectric matrix)
  average eigenvalue GAMMA=   1.6184
  1.2218  2.0150

 Free energy of the ion-electron system (eV)
  ---------------------------------------------------
  alpha Z        PSCENC =         0.44832783
  Ewald energy   TEWEN  =        23.05042715
  -Hartree energ DENC   =      -418.86273349
  -exchange      EXHF   =         0.00000000
  -V(xc)+E(xc)   XCENC  =        34.07419473
  PAW double counting   =       323.64312674     -325.77467676
  entropy T*S    EENTRO =        -0.00000000
  eigenvalues    EBANDS =      -108.16818210
  atomic energy  EATOM  =       457.35103127
  Solvation  Ediel_sol  =         0.00000000
  ---------------------------------------------------
  free energy    TOTEN  =       -14.23848464 eV

  energy without entropy =      -14.23848464  energy(sigma->0) =      -14.23848464


--------------------------------------------------------------------------------------------------------




--------------------------------------- Iteration      3(   4)  ---------------------------------------


    POTLOK:  cpu time      0.4539: real time      0.4552
    SETDIJ:  cpu time      0.0025: real time      0.0025
     EDDAV:  cpu time      0.1161: real time      0.1164
       DOS:  cpu time      0.0001: real time      0.0001
    --------------------------------------------
      LOOP:  cpu time      0.5726: real time      0.5742

 eigenvalue-minimisations  :    16
 total energy-change (2. order) : 0.4127983E-05  (-0.2316664E-04)
 number of electron       8.0000015 magnetization 
 augmentation part        0.6903041 magnetization 

 Free energy of the ion-electron system (eV)
  ---------------------------------------------------
  alpha Z        PSCENC =         0.44832783
  Ewald energy   TEWEN  =        23.05042715
  -Hartree energ DENC   =      -418.80913246
  -exchange      EXHF   =         0.00000000
  -V(xc)+E(xc)   XCENC  =        34.07085614
  PAW double counting   =       324.58673419     -326.72041824
  entropy T*S    EENTRO =        -0.00000000
  eigenvalues    EBANDS =      -108.21630640
  atomic energy  EATOM  =       457.35103127
  Solvation  Ediel_sol  =         0.00000000
  ---------------------------------------------------
  free energy    TOTEN  =       -14.23848051 eV

  energy without entropy =      -14.23848051  energy(sigma->0) =      -14.23848051


--------------------------------------------------------------------------------------------------------




 average (electrostatic) potential at core
  the test charge radii are     0.7215  0.5201
  (the norm of the test charge is              1.0000)
       1 -80.3940       2 -44.5134       3 -44.5134
 
 
 
 E-fermi :  -6.5545     XC(G=0):  -1.0326     alpha+bet : -0.2602

 Fermi energy:        -6.5545242080

 k-point     1 :       0.0000    0.0000    0.0000
  band No.  band energies     occupation 
      1     -25.0974      2.00000
      2     -12.9168      2.00000
      3      -9.0774      2.00000
      4      -7.0166      2.00000
      5      -1.0864      0.00000
      6       1.1244      0.00000
      7       1.2298      0.00000
      8       1.7415      0.00000


--------------------------------------------------------------------------------------------------------


 soft charge-density along one line, spin component           1
         0         1         2         3         4         5         6         7         8         9
 total charge-density along one line
 
 pseudopotential strength for first ion, spin component:           1
 13.778  -0.523  -0.000  -0.000  -0.121   0.000   0.000   0.006
 -0.523   0.119   0.000   0.000   0.015  -0.000  -0.000  -0.002
 -0.000   0.000 -10.551   0.000  -0.000   0.289  -0.000   0.000
 -0.000   0.000   0.000 -10.312  -0.000  -0.000   0.249   0.000
 -0.121   0.015  -0.000  -0.000 -10.453   0.000   0.000   0.273
  0.000  -0.000   0.289  -0.000   0.000   0.128   0.000  -0.000
  0.000  -0.000  -0.000   0.249   0.000   0.000   0.140  -0.000
  0.006  -0.002   0.000   0.000   0.273  -0.000  -0.000   0.133
 total augmentation occupancy for first ion, spin component:           1
  1.845   0.158   0.000   0.000  -0.168   0.000   0.000   0.057
  0.158   0.037   0.000   0.000   0.178   0.000   0.000   0.030
  0.000   0.000   1.407   0.000   0.000   0.261   0.000   0.000
  0.000   0.000   0.000   1.809   0.000   0.000   0.094   0.000
 -0.168   0.178   0.000   0.000   1.567   0.000   0.000   0.196
  0.000   0.000   0.261   0.000   0.000   0.049   0.000   0.000
  0.000   0.000   0.000   0.094   0.000   0.000   0.005   0.000
  0.057   0.030   0.000   0.000   0.196   0.000   0.000   0.028


------------------------ aborting loop because EDIFF is reached ----------------------------------------


    CHARGE:  cpu time      0.0421: real time      0.0422
    FORLOC:  cpu time      0.0436: real time      0.0437
    FORNL :  cpu time      0.0091: real time      0.0091
    STRESS:  cpu time      0.0843: real time      0.0845
    FORHAR:  cpu time      0.1397: real time      0.1400
    MIXING:  cpu time      0.0235: real time      0.0236
    OFIELD:  cpu time      0.0001: real time      0.0001

  FORCE on cell =-STRESS in cart. coord.  units (eV):
  Direction    XX          YY          ZZ          XY          YZ          ZX
  --------------------------------------------------------------------------------------
  Alpha Z     0.44833     0.44833     0.44833
  Ewald      11.60134    66.75692   -55.30788    -0.00000     0.00000     0.00000
  Hartree   140.52641   150.12099   128.26115    -0.00000    -0.00000    -0.00000
  E(xc)     -36.10620   -35.90522   -36.39904     0.00000     0.00000     0.00000
  Local    -241.27597  -290.74021  -182.53350    -0.00000     0.00000    -0.00000
  n-local   -30.94294   -30.14040   -30.79650    -0.00000    -0.00000    -0.00000
  augment     6.75013     5.77703     8.16463     0.00000     0.00000     0.00000
  Kinetic   148.95722   133.59025   168.20663     0.00000     0.00000     0.00001
  Fock        0.00000     0.00000     0.00000     0.00000     0.00000     0.00000
  -------------------------------------------------------------------------------------
  Total      -0.04168    -0.09231     0.04382     0.00000     0.00000     0.00000
  in kB      -0.13353    -0.29571     0.14037     0.00000     0.00000     0.00000
  external pressure =       -0.10 kB  Pullay stress =        0.00 kB


 VOLUME and BASIS-vectors are now :
 -----------------------------------------------------------------------------
  energy-cutoff  :      800.00
  volume of cell :      500.13
      direct lattice vectors                 reciprocal lattice vectors
     7.937700000  0.000000000  0.000000000     0.125981078  0.000000000  0.000000000
     0.000000000  7.937700000  0.000000000     0.000000000  0.125981078  0.000000000
     0.000000000  0.000000000  7.937700000     0.000000000  0.000000000  0.125981078

  length of vectors
     7.937700000  7.937700000  7.937700000     0.125981078  0.125981078  0.125981078


 FORCES acting on ions
    electron-ion (+dipol)            ewald-force                    non-local-force                 convergence-correction
 -----------------------------------------------------------------------------------------------
   0.618E+02 -.247E-14 0.647E-15   -.111E+03 -.142E-13 0.183E-16   0.488E+02 -.574E-26 -.127E-20   0.297E-01 -.403E-13 -.706E-13
   -.505E+02 0.709E+02 0.105E-06   0.553E+02 -.775E+02 0.147E-16   -.483E+01 0.673E+01 0.534E-23   0.800E-02 -.626E-02 -.799E-14
   -.505E+02 -.709E+02 -.439E-07   0.553E+02 0.775E+02 0.132E-16   -.483E+01 -.673E+01 0.626E-23   0.800E-02 0.626E-02 -.629E-14
 -----------------------------------------------------------------------------------------------
   -.392E+02 0.711E-13 0.613E-07   -.711E-14 0.000E+00 0.461E-16   0.391E+02 0.888E-15 -.126E-20   0.457E-01 -.412E-13 -.849E-13
 
 
 POSITION                                       TOTAL-FORCE (eV/Angst)
 -----------------------------------------------------------------------------------
      0.00000      0.00000      0.00000         0.040807      0.000000     -0.000000
      0.59445      7.16732      0.00000        -0.020403      0.078344      0.000000
      0.59445      0.77038      0.00000        -0.020403     -0.078344      0.000000
 -----------------------------------------------------------------------------------
    total drift:                               -0.012994      0.000000      0.000000


--------------------------------------------------------------------------------------------------------



  FREE ENERGIE OF THE ION-ELECTRON SYSTEM (eV)
  ---------------------------------------------------
  free  energy   TOTEN  =       -14.23848051 eV

  energy  without entropy=      -14.23848051  energy(sigma->0) =      -14.23848051
 
 d Force = 0.3001700E-01[ 0.374E-02, 0.563E-01]  d Energy = 0.3081739E-01-0.800E-03
 d Force =-0.4480931E+01[-0.459E+01,-0.437E+01]  d Ewald  =-0.4479595E+01-0.134E-02


--------------------------------------------------------------------------------------------------------


    POTLOK:  cpu time      0.4713: real time      0.4725


--------------------------------------------------------------------------------------------------------


 Quasi-Newton relaxation of ions (Broydens 2nd method)
  g(Force)  = 0.632E-03   g(Stress)= 0.000E+00

 retain information from N=  1 steps
 eigenvalues of (default step * inverse Hessian matrix)
  average eigenvalue of G=   0.4603
 eigenvalue spectrum of G is  0.4603


--------------------------------------------------------------------------------------------------------


    WAVPRE:  cpu time      0.1111: real time      0.1116
    FEWALD:  cpu time      0.0002: real time      0.0004
    ORTHCH:  cpu time      0.0028: real time      0.0028
     LOOP+:  cpu time      3.4720: real time      3.4817


--------------------------------------- Iteration      4(   1)  ---------------------------------------


    POTLOK:  cpu time      0.4665: real time      0.4678
    SETDIJ:  cpu time      0.0025: real time      0.0025
     EDDAV:  cpu time      0.2041: real time      0.2046
       DOS:  cpu time      0.0001: real time      0.0001
    CHARGE:  cpu time      0.0405: real time      0.0406
    MIXING:  cpu time      0.0156: real time      0.0157
    --------------------------------------------
      LOOP:  cpu time      0.7295: real time      0.7314

 eigenvalue-minimisations  :    32
 total energy-change (2. order) :-0.1568702E-03  (-0.3209230E-03)
 number of electron       8.0000015 magnetization 
 augmentation part        0.6914441 magnetization 

 Broyden mixing:
  rms(total) = 0.29943E-02    rms(broyden)= 0.29942E-02
  rms(prec ) = 0.40215E-02
  weight for this iteration     100.00

 Free energy of the ion-electron system (eV)
  ---------------------------------------------------
  alpha Z        PSCENC =         0.44832783
  Ewald energy   TEWEN  =        23.36441673
  -Hartree energ DENC   =      -419.01685232
  -exchange      EXHF   =         0.00000000
  -V(xc)+E(xc)   XCENC  =        34.08138189
  PAW double counting   =       324.89122540     -327.02673220
  entropy T*S    EENTRO =        -0.00000000
  eigenvalues    EBANDS =      -108.33144010
  atomic energy  EATOM  =       457.35103127
  Solvation  Ediel_sol  =         0.00000000
  ---------------------------------------------------
  free energy    TOTEN  =       -14.23864151 eV

  energy without entropy =      -14.23864151  energy(sigma->0) =      -14.23864151


--------------------------------------------------------------------------------------------------------




--------------------------------------- Iteration      4(   2)  ---------------------------------------


    POTLOK:  cpu time      0.4626: real time      0.4639
    SETDIJ:  cpu time      0.0025: real time      0.0025
     EDDAV:  cpu time      0.1554: real time      0.1557
       DOS:  cpu time      0.0001: real time      0.0001
    --------------------------------------------
      LOOP:  cpu time      0.6206: real time      0.6222

 eigenvalue-minimisations  :    24
 total energy-change (2. order) : 0.7700564E-05  (-0.9914479E-05)
 number of electron       8.0000015 magnetization 
 augmentation part        0.6914441 magnetization 

 Free energy of the ion-electron system (eV)
  ---------------------------------------------------
  alpha Z        PSCENC =         0.44832783
  Ewald energy   TEWEN  =        23.36441673
  -Hartree energ DENC   =      -419.07812898
  -exchange      EXHF   =         0.00000000
  -V(xc)+E(xc)   XCENC  =        34.08480745
  PAW double counting   =       325.13063770     -327.26708513
  entropy T*S    EENTRO =        -0.00000000
  eigenvalues    EBANDS =      -108.27264067
  atomic energy  EATOM  =       457.35103127
  Solvation  Ediel_sol  =         0.00000000
  ---------------------------------------------------
  free energy    TOTEN  =       -14.23863381 eV

  energy without entropy =      -14.23863381  energy(sigma->0) =      -14.23863381


--------------------------------------------------------------------------------------------------------




 average (electrostatic) potential at core
  the test charge radii are     0.7215  0.5201
  (the norm of the test charge is              1.0000)
       1 -80.3883       2 -44.5365       3 -44.5365
 
 
 
 E-fermi :  -6.5533     XC(G=0):  -1.0265     alpha+bet : -0.2602

 Fermi energy:        -6.5533323240

 k-point     1 :       0.0000    0.0000    0.0000
  band No.  band energies     occupation 
      1     -25.1153      2.00000
      2     -12.9211      2.00000
      3      -9.0830      2.00000
      4      -7.0168      2.00000
      5      -1.0763      0.00000
      6       1.1211      0.00000
      7       1.2368      0.00000
      8       1.7512      0.00000


--------------------------------------------------------------------------------------------------------


 soft charge-density along one line, spin component           1
         0         1         2         3         4         5         6         7         8         9
 total charge-density along one line
 
 pseudopotential strength for first ion, spin component:           1
 13.777  -0.523  -0.000  -0.000  -0.121   0.000   0.000   0.006
 -0.523   0.119   0.000   0.000   0.015  -0.000  -0.000  -0.002
 -0.000   0.000 -10.549   0.000  -0.000   0.288  -0.000   0.000
 -0.000   0.000   0.000 -10.310  -0.000  -0.000   0.248   0.000
 -0.121   0.015  -0.000  -0.000 -10.452   0.000   0.000   0.272
  0.000  -0.000   0.288  -0.000   0.000   0.128   0.000  -0.000
  0.000  -0.000  -0.000   0.248   0.000   0.000   0.140  -0.000
  0.006  -0.002   0.000   0.000   0.272  -0.000  -0.000   0.133
 total augmentation occupancy for first ion, spin component:           1
  1.846   0.158   0.000   0.000  -0.168   0.000   0.000   0.058
  0.158   0.038   0.000   0.000   0.179   0.000   0.000   0.030
  0.000   0.000   1.409   0.000   0.000   0.261   0.000   0.000
  0.000   0.000   0.000   1.810   0.000   0.000   0.094   0.000
 -0.168   0.179   0.000   0.000   1.569   0.000   0.000   0.197
  0.000   0.000   0.261   0.000   0.000   0.049   0.000   0.000
  0.000   0.000   0.000   0.094   0.000   0.000   0.005   0.000
  0.058   0.030   0.000   0.000   0.197   0.000   0.000   0.028


------------------------ aborting loop because EDIFF is reached ----------------------------------------


    CHARGE:  cpu time      0.0376: real time      0.0377
    FORLOC:  cpu time      0.0436: real time      0.0437
    FORNL :  cpu time      0.0092: real time      0.0093
    STRESS:  cpu time      0.0766: real time      0.0768
    FORHAR:  cpu time      0.1393: real time      0.1397
    MIXING:  cpu time      0.0223: real time      0.0223
    OFIELD:  cpu time      0.0001: real time      0.0001

  FORCE on cell =-STRESS in cart. coord.  units (eV):
  Direction    XX          YY          ZZ          XY          YZ          ZX
  --------------------------------------------------------------------------------------
  Alpha Z     0.44833     0.44833     0.44833
  Ewald      11.95915    66.71172   -55.30650    -0.00000     0.00000    -0.00000
  Hartree   140.63392   150.12219   128.32329    -0.00000    -0.00000    -0.00000
  E(xc)     -36.11954   -35.92146   -36.41385    -0.00000     0.00000     0.00000
  Local    -241.66401  -290.68241  -182.64466    -0.00000    -0.00000    -0.00000
  n-local   -30.98101   -30.17019   -30.81295    -0.00000    -0.00000    -0.00001
  augment     6.74545     5.77687     8.16382    -0.00000     0.00000     0.00000
  Kinetic   148.94805   133.70358   168.24776     0.00000    -0.00000     0.00001
  Fock        0.00000     0.00000     0.00000     0.00000     0.00000     0.00000
  -------------------------------------------------------------------------------------
  Total      -0.02966    -0.01136     0.00523     0.00000     0.00000     0.00000
  in kB      -0.09501    -0.03640     0.01676     0.00000     0.00000     0.00000
  external pressure =       -0.04 kB  Pullay stress =        0.00 kB


 VOLUME and BASIS-vectors are now :
 -----------------------------------------------------------------------------
  energy-cutoff  :      800.00
  volume of cell :      500.13
      direct lattice vectors                 reciprocal lattice vectors
     7.937700000  0.000000000  0.000000000     0.125981078  0.000000000  0.000000000
     0.000000000  7.937700000  0.000000000     0.000000000  0.125981078  0.000000000
     0.000000000  0.000000000  7.937700000     0.000000000  0.000000000  0.125981078

  length of vectors
     7.937700000  7.937700000  7.937700000     0.125981078  0.125981078  0.125981078


 FORCES acting on ions
    electron-ion (+dipol)            ewald-force                    non-local-force                 convergence-correction
 -----------------------------------------------------------------------------------------------
   0.623E+02 -.227E-14 -.167E-14   -.111E+03 0.000E+00 0.179E-16   0.490E+02 -.698E-25 0.223E-20   -.311E-01 -.271E-13 -.157E-13
   -.507E+02 0.710E+02 0.116E-06   0.556E+02 -.777E+02 0.127E-16   -.487E+01 0.676E+01 -.104E-21   0.805E-03 -.211E-02 -.390E-14
   -.507E+02 -.710E+02 -.574E-07   0.556E+02 0.777E+02 0.155E-16   -.487E+01 -.676E+01 0.761E-22   0.805E-03 0.211E-02 -.720E-15
 -----------------------------------------------------------------------------------------------
   -.392E+02 0.853E-13 0.588E-07   0.711E-14 0.000E+00 0.461E-16   0.392E+02 0.888E-15 0.220E-20   -.295E-01 -.244E-13 -.203E-13
 
 
 POSITION                                       TOTAL-FORCE (eV/Angst)
 -----------------------------------------------------------------------------------
      0.00000      0.00000      0.00000        -0.028864      0.000000     -0.000000
      0.59459      7.16943      0.00000         0.014432     -0.001190      0.000000
      0.59459      0.76827      0.00000         0.014432      0.001190     -0.000000
 -----------------------------------------------------------------------------------
    total drift:                               -0.000948      0.000000      0.000000


--------------------------------------------------------------------------------------------------------



  FREE ENERGIE OF THE ION-ELECTRON SYSTEM (eV)
  ---------------------------------------------------
  free  energy   TOTEN  =       -14.23863381 eV

  energy  without entropy=      -14.23863381  energy(sigma->0) =      -14.23863381
 
 d Force = 0.1624548E-03[-0.126E-05, 0.326E-03]  d Energy = 0.1532976E-03 0.916E-05
 d Force =-0.3139896E+00[-0.314E+00,-0.314E+00]  d Ewald  =-0.3139896E+00-0.350E-07


--------------------------------------------------------------------------------------------------------


    POTLOK:  cpu time      0.4959: real time      0.4971


--------------------------------------------------------------------------------------------------------


 Quasi-Newton relaxation of ions (Broydens 2nd method)
  g(Force)  = 0.202E-04   g(Stress)= 0.000E+00

 retain information from N=  2 steps
 eigenvalues of (default step * inverse Hessian matrix)
  average eigenvalue of G=  22.0870
 eigenvalue spectrum of G is  0.4619 43.7122


--------------------------------------------------------------------------------------------------------


  
 reached required accuracy - stopping structural energy minimisation
 writing wavefunctions
     LOOP+:  cpu time      2.1837: real time      2.3524
    4ORBIT:  cpu time      0.0001: real time      0.0001

 total amount of memory used by VASP MPI-rank0   169329. kBytes
=======================================================================

   base      :      30000. kBytes
   nonl-proj :       2259. kBytes
   fftplans  :      48668. kBytes
   grid      :      86754. kBytes
   one-center:          4. kBytes
   wavefun   :       1644. kBytes
 
  
  
 General timing and accounting informations for this job:
 ========================================================
  
                  Total CPU time used (sec):       21.593
                            User time (sec):       18.978
                          System time (sec):        2.615
                         Elapsed time (sec):       22.976
  
                   Maximum memory used (kb):      366916.
                   Average memory used (kb):          N/A
  
                          Minor page faults:       613020
                          Major page faults:           18
                 Voluntary context switches:         1295
