unknown system                          
           1
     7.937700    0.000000    0.000000
     0.000000    7.937700    0.000000
     0.000000    0.000000    7.937700
   O    H 
     1     2
Direct configuration=     1
   0.00000000  0.00000000  0.00000000
   0.07333333  0.90466667  0.00000000
   0.07333333  0.09533333  0.00000000
Direct configuration=     2
   0.00000000  0.00000000  0.00000000
   0.07648183  0.90035181  0.00000000
   0.07648183  0.09964819  0.00000000
Direct configuration=     3
   0.00000000  0.00000000  0.00000000
   0.07488998  0.90294615  0.00000000
   0.07488998  0.09705385  0.00000000
Direct configuration=     4
   0.00000000  0.00000000  0.00000000
   0.07490647  0.90321269  0.00000000
   0.07490647  0.09678731  0.00000000
