 ----------------------------------------------------
    OOO  PPPP  EEEEE N   N M   M PPPP
   O   O P   P E     NN  N MM MM P   P
   O   O PPPP  EEEEE N N N M M M PPPP   -- VERSION
   O   O P     E     N  NN M   M P
    OOO  P     EEEEE N   N M   M P
 ----------------------------------------------------
 running    1 mpi-ranks, with    1 threads/rank
 distrk:  each k-point on    1 cores,    1 groups
 distr:  one band on    1 cores,    1 groups
 vasp.6.3.2 27Jun22 (build Oct 19 2022 15:35:57) gamma-only                     
  
 POSCAR found :  2 types and       3 ions
 scaLAPACK will be used
 LDA part: xc-table for Pade appr. of Perdew
 POSCAR, INCAR and KPOINTS ok, starting setup
 FFT: planning ... GRIDC
 FFT: planning ... GRID_SOFT
 FFT: planning ... GRID
 WAVECAR not read
 entering main loop
       N       E                     dE             d eps       ncg     rms          rms(c)
DAV:   1     0.757764484645E+02    0.75776E+02   -0.17213E+03    16   0.447E+02
DAV:   2     0.338814583202E+01   -0.72388E+02   -0.72388E+02    32   0.763E+01
DAV:   3    -0.157497901475E+02   -0.19138E+02   -0.19138E+02    16   0.877E+01
DAV:   4    -0.163152276896E+02   -0.56544E+00   -0.56544E+00    32   0.168E+01
DAV:   5    -0.163154035906E+02   -0.17590E-03   -0.17590E-03    24   0.310E-01    0.785E+00
DAV:   6    -0.143704336396E+02    0.19450E+01   -0.93766E+00    16   0.217E+01    0.302E+00
DAV:   7    -0.142621549239E+02    0.10828E+00   -0.11171E-01    32   0.258E+00    0.189E+00
DAV:   8    -0.141849217149E+02    0.77233E-01   -0.73129E-02    24   0.267E+00    0.224E-01
DAV:   9    -0.141896010228E+02   -0.46793E-02   -0.45241E-03    24   0.424E-01    0.137E-01
DAV:  10    -0.141980608522E+02   -0.84598E-02   -0.39705E-03    16   0.547E-01    0.640E-02
DAV:  11    -0.142051768460E+02   -0.71160E-02   -0.45141E-03    16   0.367E-01    0.892E-02
DAV:  12    -0.142062326642E+02   -0.10558E-02   -0.12105E-03    32   0.226E-01    0.178E-02
DAV:  13    -0.142073366889E+02   -0.11040E-02   -0.15361E-04    24   0.832E-02    0.117E-02
DAV:  14    -0.142074377497E+02   -0.10106E-03   -0.94236E-06    32   0.248E-02    0.291E-03
DAV:  15    -0.142075615129E+02   -0.12376E-03   -0.11200E-05    32   0.173E-02    0.742E-04
DAV:  16    -0.142075698023E+02   -0.82894E-05   -0.48468E-07    24   0.375E-03
   1 F= -.14207570E+02 E0= -.14207570E+02  d E =-.142076E+02
 BRION: g(F)=  0.822E-01 g(S)=  0.000E+00
 bond charge predicted
       N       E                     dE             d eps       ncg     rms          rms(c)
DAV:   1    -0.142047193831E+02    0.28421E-02   -0.17269E+00    16   0.115E+01    0.859E-01
DAV:   2    -0.141909277135E+02    0.13792E-01   -0.83008E-02    24   0.203E+00    0.313E-01
DAV:   3    -0.141904078658E+02    0.51985E-03   -0.17615E-03    24   0.395E-01    0.159E-01
DAV:   4    -0.141905263337E+02   -0.11847E-03   -0.84347E-04    24   0.285E-01    0.325E-02
DAV:   5    -0.141905480351E+02   -0.21701E-04   -0.18213E-04    24   0.110E-01
   2 F= -.14190548E+02 E0= -.14190548E+02  d E =0.170218E-01
 BRION: g(F)=  0.138E+00 g(S)=  0.000E+00 retain N=  1 mean eig= 0.44
 eig:   0.436
 bond charge predicted
       N       E                     dE             d eps       ncg     rms          rms(c)
DAV:   1    -0.142274196478E+02   -0.36893E-01   -0.54502E-01    16   0.648E+00    0.447E-01
DAV:   2    -0.142236360611E+02    0.37836E-02   -0.20916E-02    24   0.107E+00    0.178E-01
DAV:   3    -0.142234833112E+02    0.15275E-03   -0.98362E-04    24   0.268E-01    0.857E-02
DAV:   4    -0.142235375355E+02   -0.54224E-04   -0.36496E-04    16   0.170E-01
   3 F= -.14223538E+02 E0= -.14223538E+02  d E =-.329895E-01
 BRION: g(F)=  0.779E-03 g(S)=  0.000E+00 retain N=  1 mean eig= 0.47
 eig:   0.470
 bond charge predicted
       N       E                     dE             d eps       ncg     rms          rms(c)
DAV:   1    -0.142237166074E+02   -0.23330E-03   -0.37167E-03    24   0.589E-01    0.333E-02
DAV:   2    -0.142237070985E+02    0.95089E-05   -0.11893E-04    24   0.862E-02
   4 F= -.14223707E+02 E0= -.14223707E+02  d E =-.169563E-03
 BRION: g(F)=  0.240E-04 g(S)=  0.000E+00 retain N=  2 mean eig=35.13
 eig:   0.471 69.787
 reached required accuracy - stopping structural energy minimisation
 writing wavefunctions
