unknown system                          
           1
     7.937700    0.000000    0.000000
     0.000000    7.937700    0.000000
     0.000000    0.000000    7.937700
   O    H 
     1     2
Direct configuration=     1
   0.00000000  0.00000000  0.00000000
   0.07333333  0.90466667  0.00000000
   0.07333333  0.09533333  0.00000000
Direct configuration=     2
   0.00000000  0.00000000  0.00000000
   0.07663016  0.90012804  0.00000000
   0.07663016  0.09987196  0.00000000
Direct configuration=     3
   0.00000000  0.00000000  0.00000000
   0.07499008  0.90283335  0.00000000
   0.07499008  0.09716665  0.00000000
Direct configuration=     4
   0.00000000  0.00000000  0.00000000
   0.07498211  0.90312164  0.00000000
   0.07498211  0.09687836  0.00000000
