       N       E                     dE             d eps       ncg     rms          rms(c)
DAV:   1     0.732288834082E+02    0.73229E+02   -0.19665E+03    16   0.531E+02
DAV:   2     0.102135109262E+02   -0.63015E+02   -0.62993E+02    32   0.888E+01
DAV:   3    -0.151936730268E+02   -0.25407E+02   -0.25407E+02    24   0.859E+01
DAV:   4    -0.163482265685E+02   -0.11546E+01   -0.11546E+01    16   0.181E+01
DAV:   5    -0.163548488393E+02   -0.66223E-02   -0.66223E-02    24   0.158E+00    0.800E+00
DAV:   6    -0.143763042008E+02    0.19785E+01   -0.98253E+00    16   0.227E+01    0.305E+00
DAV:   7    -0.142696923279E+02    0.10661E+00   -0.14902E-01    24   0.293E+00    0.190E+00
DAV:   8    -0.141868020621E+02    0.82890E-01   -0.70791E-02    24   0.267E+00    0.211E-01
DAV:   9    -0.141904693494E+02   -0.36673E-02   -0.42394E-03    24   0.405E-01    0.138E-01
DAV:  10    -0.141992706300E+02   -0.88013E-02   -0.40986E-03    16   0.545E-01    0.647E-02
DAV:  11    -0.142065905148E+02   -0.73199E-02   -0.48544E-03    16   0.385E-01    0.943E-02
DAV:  12    -0.142074743971E+02   -0.88388E-03   -0.12155E-03    32   0.232E-01    0.199E-02
DAV:  13    -0.142086684321E+02   -0.11940E-02   -0.20064E-04    24   0.978E-02    0.133E-02
DAV:  14    -0.142087436401E+02   -0.75208E-04   -0.12069E-05    32   0.292E-02
   1 F= -.14208744E+02 E0= -.14208744E+02  d E =-.142087E+02
       N       E                     dE             d eps       ncg     rms          rms(c)
DAV:   1    -0.142053131884E+02    0.33552E-02   -0.16307E+00    16   0.113E+01    0.837E-01
DAV:   2    -0.141927175138E+02    0.12596E-01   -0.80461E-02    32   0.208E+00    0.306E-01
DAV:   3    -0.141922089069E+02    0.50861E-03   -0.12024E-03    24   0.349E-01    0.157E-01
DAV:   4    -0.141921683085E+02    0.40598E-04   -0.60361E-04    24   0.263E-01
   2 F= -.14192168E+02 E0= -.14192168E+02  d E =0.165753E-01
       N       E                     dE             d eps       ncg     rms          rms(c)
DAV:   1    -0.142275268784E+02   -0.35318E-01   -0.52855E-01    16   0.645E+00    0.442E-01
DAV:   2    -0.142239248101E+02    0.36021E-02   -0.21056E-02    24   0.110E+00    0.176E-01
DAV:   3    -0.142237454225E+02    0.17939E-03   -0.86432E-04    16   0.260E-01    0.848E-02
DAV:   4    -0.142237583129E+02   -0.12890E-04   -0.24057E-04    16   0.156E-01
   3 F= -.14223758E+02 E0= -.14223758E+02  d E =-.315900E-01
       N       E                     dE             d eps       ncg     rms          rms(c)
DAV:   1    -0.142239323235E+02   -0.18690E-03   -0.34529E-03    24   0.570E-01    0.301E-02
DAV:   2    -0.142239238796E+02    0.84439E-05   -0.93011E-05    24   0.808E-02
   4 F= -.14223924E+02 E0= -.14223924E+02  d E =-.165567E-03
