unknown system                          
           1
     7.937700    0.000000    0.000000
     0.000000    7.937700    0.000000
     0.000000    0.000000    7.937700
   O    H 
     1     2
Direct configuration=     1
   0.00000000  0.00000000  0.00000000
   0.07333333  0.90466667  0.00000000
   0.07333333  0.09533333  0.00000000
Direct configuration=     2
   0.00000000  0.00000000  0.00000000
   0.07653303  0.90028191  0.00000000
   0.07653303  0.09971809  0.00000000
Direct configuration=     3
   0.00000000  0.00000000  0.00000000
   0.07492179  0.90291141  0.00000000
   0.07492179  0.09708859  0.00000000
Direct configuration=     4
   0.00000000  0.00000000  0.00000000
   0.07493573  0.90318828  0.00000000
   0.07493573  0.09681172  0.00000000
