 vasp.6.3.2 27Jun22 (build Oct 19 2022 15:35:57) gamma-only                     
  
 executed on             LinuxIFC date 2023.09.19  17:55:17
 running    1 mpi-ranks, with    1 threads/rank
 distrk:  each k-point on    1 cores,    1 groups
 distr:  one band on NCORE=   1 cores,    1 groups


--------------------------------------------------------------------------------------------------------


 INCAR:
   PREC = Normal
   ISMEAR = 0
   SIGMA = 0.1
   IBRION = 1
   NFREE = 2
   NSW = 20
   EDIFFG = -0.02
   ENCUT = 1000

 POTCAR:   PAW_RPBE O 08Apr2002                   
 POTCAR:   PAW_RPBE H 15Jun2001                   
 POTCAR:   PAW_RPBE O 08Apr2002                   
   VRHFIN =O: s2p4                                                                                  
   LEXCH  = PE                                                                                      
   EATOM  =   432.3788 eV,   31.7789 Ry                                                             
                                                                                                    
   TITEL  = PAW_RPBE O 08Apr2002                                                                    
   LULTRA =        F    use ultrasoft PP ?                                                          
   IUNSCR =        0    unscreen: 0-lin 1-nonlin 2-no                                               
   RPACOR =     .000    partial core radius                                                         
   POMASS =   16.000; ZVAL   =    6.000    mass and valenz                                          
   RCORE  =    1.520    outmost cutoff radius                                                       
   RWIGS  =    1.550; RWIGS  =     .820    wigner-seitz radius (au A)                               
   ENMAX  =  400.000; ENMIN  =  300.000 eV                                                          
   ICORE  =        2    local potential                                                             
   LCOR   =        T    correct aug charges                                                         
   LPAW   =        T    paw PP                                                                      
   EAUG   =  605.392                                                                                
   DEXC   =     .000                                                                                
   RMAX   =    2.264    core radius for proj-oper                                                   
   RAUG   =    1.300    factor for augmentation sphere                                              
   RDEP   =    1.550    radius for radial grids                                                     
   QCUT   =   -5.520; QGAM   =   11.041    optimization parameters                                  
                                                                                                    
   Description                                                                                      
     l     E      TYP  RCUT    TYP  RCUT                                                            
     0   .000     23  1.200                                                                         
     0  -.700     23  1.200                                                                         
     1   .000     23  1.520                                                                         
     1   .600     23  1.520                                                                         
     2   .000      7  1.500                                                                         
  local pseudopotential read in
  atomic valenz-charges read in
  non local Contribution for L=           0  read in
    real space projection operators read in
  non local Contribution for L=           0  read in
    real space projection operators read in
  non local Contribution for L=           1  read in
    real space projection operators read in
  non local Contribution for L=           1  read in
    real space projection operators read in
    PAW grid and wavefunctions read in
 
   number of l-projection  operators is LMAX  =           4
   number of lm-projection operators is LMMAX =           8
 
 POTCAR:   PAW_RPBE H 15Jun2001                   
   VRHFIN =H: ultrasoft test                                                                        
   LEXCH  = PE                                                                                      
   EATOM  =    12.4884 eV,     .9179 Ry                                                             
                                                                                                    
   TITEL  = PAW_RPBE H 15Jun2001                                                                    
   LULTRA =        F    use ultrasoft PP ?                                                          
   IUNSCR =        0    unscreen: 0-lin 1-nonlin 2-no                                               
   RPACOR =     .000    partial core radius                                                         
   POMASS =    1.000; ZVAL   =    1.000    mass and valenz                                          
   RCORE  =    1.100    outmost cutoff radius                                                       
   RWIGS  =     .700; RWIGS  =     .370    wigner-seitz radius (au A)                               
   ENMAX  =  250.000; ENMIN  =  200.000 eV                                                          
   RCLOC  =     .701    cutoff for local pot                                                        
   LCOR   =        T    correct aug charges                                                         
   LPAW   =        T    paw PP                                                                      
   EAUG   =  400.000                                                                                
   RMAX   =    2.174    core radius for proj-oper                                                   
   RAUG   =    1.200    factor for augmentation sphere                                              
   RDEP   =    1.112    radius for radial grids                                                     
   QCUT   =   -5.749; QGAM   =   11.498    optimization parameters                                  
                                                                                                    
   Description                                                                                      
     l     E      TYP  RCUT    TYP  RCUT                                                            
     0   .000     23  1.100                                                                         
     0   .500     23  1.100                                                                         
     1  -.300     23  1.100                                                                         
  local pseudopotential read in
  atomic valenz-charges read in
  non local Contribution for L=           0  read in
    real space projection operators read in
  non local Contribution for L=           0  read in
    real space projection operators read in
  non local Contribution for L=           1  read in
    real space projection operators read in
    PAW grid and wavefunctions read in
 
   number of l-projection  operators is LMAX  =           3
   number of lm-projection operators is LMMAX =           5
 
 PAW_RPBE O 08Apr2002                   :
 energy of atom  1       EATOM= -432.3788
 kinetic energy error for atom=    0.0022 (will be added to EATOM!!)
 PAW_RPBE H 15Jun2001                   :
 energy of atom  2       EATOM=  -12.4884
 kinetic energy error for atom=    0.0001 (will be added to EATOM!!)
 
 
 POSCAR: H2O _2
  positions in cartesian coordinates
  No initial velocities read in
 exchange correlation table for  LEXCH =        8
   RHO(1)=    0.500       N(1)  =     2000
   RHO(2)=  100.500       N(2)  =     4000
 


--------------------------------------------------------------------------------------------------------


 ion  position               nearest neighbor table
   1  0.000  0.000  0.000-   2 0.95   3 0.95
   2  0.073  0.905  0.000-   1 0.95
   3  0.073  0.095  0.000-   1 0.95
 
  LATTYP: Found a simple cubic cell.
 ALAT       =     7.9377000000
  
  Lattice vectors:
  
 A1 = (   7.9377000000,   0.0000000000,   0.0000000000)
 A2 = (   0.0000000000,   7.9377000000,   0.0000000000)
 A3 = (   0.0000000000,   0.0000000000,   7.9377000000)


Analysis of symmetry for initial positions (statically):
=====================================================================
 Subroutine PRICEL returns:
 Original cell was already a primitive cell.
 

 Routine SETGRP: Setting up the symmetry group for a 
 simple cubic supercell.


 Subroutine GETGRP returns: Found  4 space group operations
 (whereof  4 operations were pure point group operations)
 out of a pool of 48 trial point group operations.


The static configuration has the point symmetry C_2v.


Analysis of symmetry for dynamics (positions and initial velocities):
=====================================================================
 Subroutine PRICEL returns:
 Original cell was already a primitive cell.
 

 Routine SETGRP: Setting up the symmetry group for a 
 simple cubic supercell.


 Subroutine GETGRP returns: Found  4 space group operations
 (whereof  4 operations were pure point group operations)
 out of a pool of 48 trial point group operations.


The dynamic configuration has the point symmetry C_2v.


Analysis of constrained symmetry for selective dynamics:
=====================================================================
 Subroutine PRICEL returns:
 Original cell was already a primitive cell.
 

 Routine SETGRP: Setting up the symmetry group for a 
 simple cubic supercell.


 Subroutine GETGRP returns: Found  4 space group operations
 (whereof  4 operations were pure point group operations)
 out of a pool of 48 trial point group operations.


The constrained configuration has the point symmetry C_2v.


 Subroutine INISYM returns: Found  4 space group operations
 (whereof  4 operations are pure point group operations),
 and found     1 'primitive' translations


----------------------------------------------------------------------------------------

                                     Primitive cell                                     

  volume of cell :     500.1313

  direct lattice vectors                    reciprocal lattice vectors
     7.937700000  0.000000000  0.000000000     0.125981078  0.000000000  0.000000000
     0.000000000  7.937700000  0.000000000     0.000000000  0.125981078  0.000000000
     0.000000000  0.000000000  7.937700000     0.000000000  0.000000000  0.125981078

  length of vectors
     7.937700000  7.937700000  7.937700000     0.125981078  0.125981078  0.125981078

  position of ions in fractional coordinates (direct lattice)
     0.000000000  0.000000000  0.000000000
     0.073333333  0.904666667  0.000000000
     0.073333333  0.095333333  0.000000000

  ion indices of the primitive-cell ions
   primitive index   ion index
                 1           1
                 2           2
                 3           3

----------------------------------------------------------------------------------------

 
 
 KPOINTS: Gamma-point only                        

Automatic generation of k-mesh.
 Grid dimensions read from file:
 generate k-points for:    1    1    1

 Generating k-lattice:

  Cartesian coordinates                     Fractional coordinates (reciprocal lattice)
     0.125981078  0.000000000  0.000000000     1.000000000  0.000000000  0.000000000
     0.000000000  0.125981078  0.000000000     0.000000000  1.000000000  0.000000000
     0.000000000  0.000000000  0.125981078     0.000000000  0.000000000  1.000000000

  Length of vectors
     0.125981078  0.125981078  0.125981078

  Shift w.r.t. Gamma in fractional coordinates (k-lattice)
     0.000000000  0.000000000  0.000000000

 
 Subroutine IBZKPT returns following result:
 ===========================================
 
 Found      1 irreducible k-points:
 
 Following reciprocal coordinates:
            Coordinates               Weight
  0.000000  0.000000  0.000000      1.000000
 
 Following cartesian coordinates:
            Coordinates               Weight
  0.000000  0.000000  0.000000      1.000000
 


--------------------------------------------------------------------------------------------------------




 Dimension of arrays:
   k-points           NKPTS =      1   k-points in BZ     NKDIM =      1   number of bands    NBANDS=      8
   number of dos      NEDOS =    301   number of ions     NIONS =      3
   non local maximal  LDIM  =      4   non local SUM 2l+1 LMDIM =      8
   total plane-waves  NPLWV = 262144
   max r-space proj   IRMAX =      1   max aug-charges    IRDMAX=   6999
   dimension x,y,z NGX =    64 NGY =   64 NGZ =   64
   dimension x,y,z NGXF=   128 NGYF=  128 NGZF=  128
   support grid    NGXF=   128 NGYF=  128 NGZF=  128
   ions per type =               1   2
   NGX,Y,Z   is equivalent  to a cutoff of  13.40, 13.40, 13.40 a.u.
   NGXF,Y,Z  is equivalent  to a cutoff of  26.81, 26.81, 26.81 a.u.

 SYSTEM =  unknown system                          
 POSCAR =  H2O _2                                  

 Startparameter for this run:
   NWRITE =      2    write-flag & timer
   PREC   = normal    normal or accurate (medium, high low for compatibility)
   ISTART =      0    job   : 0-new  1-cont  2-samecut
   ICHARG =      2    charge: 1-file 2-atom 10-const
   ISPIN  =      1    spin polarized calculation?
   LNONCOLLINEAR =      F non collinear calculations
   LSORBIT =      F    spin-orbit coupling
   INIWAV =      1    electr: 0-lowe 1-rand  2-diag
   LASPH  =      F    aspherical Exc in radial PAW
 Electronic Relaxation 1
   ENCUT  = 1000.0 eV  73.50 Ry    8.57 a.u.  20.47 20.47 20.47*2*pi/ulx,y,z
   ENINI  = 1000.0     initial cutoff
   ENAUG  =  605.4 eV  augmentation charge cutoff
   NELM   =     60;   NELMIN=  2; NELMDL= -5     # of ELM steps 
   EDIFF  = 0.1E-03   stopping-criterion for ELM
   LREAL  =      F    real-space projection
   NLSPLINE    = F    spline interpolate recip. space projectors
   LCOMPAT=      F    compatible to vasp.4.4
   GGA_COMPAT  = T    GGA compatible to vasp.4.4-vasp.4.6
   LMAXPAW     = -100 max onsite density
   LMAXMIX     =    2 max onsite mixed and CHGCAR
   VOSKOWN=      0    Vosko Wilk Nusair interpolation
   ROPT   =    0.00000   0.00000
 Ionic relaxation
   EDIFFG = -.2E-01   stopping-criterion for IOM
   NSW    =     20    number of steps for IOM
   NBLOCK =      1;   KBLOCK =     20    inner block; outer block 
   IBRION =      1    ionic relax: 0-MD 1-quasi-New 2-CG
   NFREE  =      2    steps in history (QN), initial steepest desc. (CG)
   ISIF   =      2    stress and relaxation
   IWAVPR =     11    prediction:  0-non 1-charg 2-wave 3-comb
   ISYM   =      2    0-nonsym 1-usesym 2-fastsym
   LCORR  =      T    Harris-Foulkes like correction to forces

   POTIM  = 0.5000    time-step for ionic-motion
   TEIN   =    0.0    initial temperature
   TEBEG  =    0.0;   TEEND  =   0.0 temperature during run
   SMASS  =  -3.00    Nose mass-parameter (am)
   estimated Nose-frequenzy (Omega)   =  0.10E-29 period in steps = 0.13E+47 mass=  -0.144E-26a.u.
   SCALEE = 1.0000    scale energy and forces
   NPACO  =    256;   APACO  = 10.0  distance and # of slots for P.C.
   PSTRESS=    0.0 pullay stress

  Mass of Ions in am
   POMASS =  16.00  1.00
  Ionic Valenz
   ZVAL   =   6.00  1.00
  Atomic Wigner-Seitz radii
   RWIGS  =  -1.00 -1.00
  virtual crystal weights 
   VCA    =   1.00  1.00
   NELECT =       8.0000    total number of electrons
   NUPDOWN=      -1.0000    fix difference up-down

 DOS related values:
   EMIN   =  10.00;   EMAX   =-10.00  energy-range for DOS
   EFERMI =   0.00
   ISMEAR =     0;   SIGMA  =   0.10  broadening in eV -4-tet -1-fermi 0-gaus

 Electronic relaxation 2 (details)
   IALGO  =     38    algorithm
   LDIAG  =      T    sub-space diagonalisation (order eigenvalues)
   LSUBROT=      F    optimize rotation matrix (better conditioning)
   TURBO    =      0    0=normal 1=particle mesh
   IRESTART =      0    0=no restart 2=restart with 2 vectors
   NREBOOT  =      0    no. of reboots
   NMIN     =      0    reboot dimension
   EREF     =   0.00    reference energy to select bands
   IMIX   =      4    mixing-type and parameters
     AMIX     =   0.40;   BMIX     =  1.00
     AMIX_MAG =   1.60;   BMIX_MAG =  1.00
     AMIN     =   0.10
     WC   =   100.;   INIMIX=   1;  MIXPRE=   1;  MAXMIX= -45

 Intra band minimization:
   WEIMIN = 0.0010     energy-eigenvalue tresh-hold
   EBREAK =  0.31E-05  absolut break condition
   DEPER  =   0.30     relativ break condition  

   TIME   =   0.40     timestep for ELM

  volume/ion in A,a.u.               =     166.71      1125.02
  Fermi-wavevector in a.u.,A,eV,Ry     =   0.412487  0.779487  2.314969  0.170145
  Thomas-Fermi vector in A             =   1.369490
 
 Write flags
   LWAVE        =      T    write WAVECAR
   LDOWNSAMPLE  =      F    k-point downsampling of WAVECAR
   LCHARG       =      T    write CHGCAR
   LVTOT        =      F    write LOCPOT, total local potential
   LVHAR        =      F    write LOCPOT, Hartree potential only
   LELF         =      F    write electronic localiz. function (ELF)
   LORBIT       =      0    0 simple, 1 ext, 2 COOP (PROOUT), +10 PAW based schemes


 Dipole corrections
   LMONO  =      F    monopole corrections only (constant potential shift)
   LDIPOL =      F    correct potential (dipole corrections)
   IDIPOL =      0    1-x, 2-y, 3-z, 4-all directions 
   EPSILON=  1.0000000 bulk dielectric constant

 Exchange correlation treatment:
   GGA     =    --    GGA type
   LEXCH   =     8    internal setting for exchange type
   LIBXC   =     F    Libxc                    
   VOSKOWN =     0    Vosko Wilk Nusair interpolation
   LHFCALC =     F    Hartree Fock is set to
   LHFONE  =     F    Hartree Fock one center treatment
   AEXX    =    0.0000 exact exchange contribution

 Linear response parameters
   LEPSILON=     F    determine dielectric tensor
   LRPA    =     F    only Hartree local field effects (RPA)
   LNABLA  =     F    use nabla operator in PAW spheres
   LVEL    =     F    velocity operator in full k-point grid
   CSHIFT  =0.1000    complex shift for real part using Kramers Kronig
   OMEGAMAX=  -1.0    maximum frequency
   DEG_THRESHOLD= 0.2000000E-02 threshold for treating states as degnerate
   RTIME   =   -0.100 relaxation time in fs
  (WPLASMAI=    0.000 imaginary part of plasma frequency in eV, 0.658/RTIME)
   DFIELD  = 0.0000000 0.0000000 0.0000000 field for delta impulse in time
 
  Optional k-point grid parameters
   LKPOINTS_OPT  =     F    use optional k-point grid
   KPOINTS_OPT_MODE=     1    mode for optional k-point grid
 
 Orbital magnetization related:
   ORBITALMAG=     F  switch on orbital magnetization
   LCHIMAG   =     F  perturbation theory with respect to B field
   DQ        =  0.001000  dq finite difference perturbation B field
   LLRAUG    =     F  two centre corrections for induced B field



--------------------------------------------------------------------------------------------------------


 quasi-Newton-method for relaxation of ions
   using selective dynamics as specified on POSCAR
   WARNING: If single coordinates had been selected the selection of coordinates
            is made according to the corresponding   d i r e c t   coordinates!
            Don't support selection of single cartesian coordinates -- sorry ...
  !
 charge density and potential will be updated during run
 non-spin polarized calculation
 Variant of blocked Davidson
 Davidson routine will perform the subspace rotation
 perform sub-space diagonalisation
    after iterative eigenvector-optimisation
 modified Broyden-mixing scheme, WC =      100.0
 initial mixing is a Kerker type mixing with AMIX =  0.4000 and BMIX =      1.0000
 Hartree-type preconditioning will be used
 using additional bands            4
 reciprocal scheme for non local part
 calculate Harris-corrections to forces 
   (improved forces if not selfconsistent)
 use gradient corrections 
 use of overlap-Matrix (Vanderbilt PP)
 Gauss-broadening in eV      SIGMA  =   0.10


--------------------------------------------------------------------------------------------------------


  energy-cutoff  :     1000.00
  volume of cell :      500.13
      direct lattice vectors                 reciprocal lattice vectors
     7.937700000  0.000000000  0.000000000     0.125981078  0.000000000  0.000000000
     0.000000000  7.937700000  0.000000000     0.000000000  0.125981078  0.000000000
     0.000000000  0.000000000  7.937700000     0.000000000  0.000000000  0.125981078

  length of vectors
     7.937700000  7.937700000  7.937700000     0.125981078  0.125981078  0.125981078


 
 k-points in units of 2pi/SCALE and weight: Gamma-point only                        
   0.00000000  0.00000000  0.00000000       1.000
 
 k-points in reciprocal lattice and weights: Gamma-point only                        
   0.00000000  0.00000000  0.00000000       1.000
 
 position of ions in fractional coordinates (direct lattice) 
   0.00000000  0.00000000  0.00000000
   0.07333333  0.90466667  0.00000000
   0.07333333  0.09533333  0.00000000
 
 position of ions in cartesian coordinates  (Angst):
   0.00000000  0.00000000  0.00000000
   0.58209800  7.18097260  0.00000000
   0.58209800  0.75672740  0.00000000
 


--------------------------------------------------------------------------------------------------------


 use serial FFT for orbitals x direction half grid
 k-point   1 :   0.0000 0.0000 0.0000  plane waves:   17913

 maximum and minimum number of plane-waves per node :     17913    17913

 maximum number of plane-waves:     17913
 maximum index in each direction: 
   IXMAX=   20   IYMAX=   20   IZMAX=   20
   IXMIN=    0   IYMIN=  -20   IZMIN=  -20


 serial   3D FFT for wavefunctions
 parallel 3D FFT for charge:
    minimum data exchange during FFTs selected (reduces bandwidth)


 total amount of memory used by VASP MPI-rank0   237228. kBytes
=======================================================================

   base      :      30000. kBytes
   nonl-proj :       3152. kBytes
   fftplans  :      72476. kBytes
   grid      :     129302. kBytes
   one-center:          4. kBytes
   wavefun   :       2294. kBytes
 
     INWAV:  cpu time      0.0000: real time      0.0000
 Broyden mixing: mesh for mixing (old mesh)
   NGX = 41   NGY = 41   NGZ = 41
  (NGX  =128   NGY  =128   NGZ  =128)
  gives a total of  68921 points

 initial charge density was supplied:
 charge density of overlapping atoms calculated
 number of electron       8.0000000 magnetization 
 keeping initial charge density in first step


--------------------------------------------------------------------------------------------------------


 Maximum index for augmentation-charges         6619 (set IRDMAX)


--------------------------------------------------------------------------------------------------------


 First call to EWALD:  gamma=   0.223
 Maximum number of real-space cells 3x 3x 3
 Maximum number of reciprocal cells 3x 3x 3

    FEWALD:  cpu time      0.0013: real time      0.0013


--------------------------------------- Iteration      1(   1)  ---------------------------------------


    POTLOK:  cpu time      0.7626: real time      0.7668
    SETDIJ:  cpu time      0.0027: real time      0.0027
     EDDAV:  cpu time      0.1844: real time      0.1854
       DOS:  cpu time      0.0002: real time      0.0002
    --------------------------------------------
      LOOP:  cpu time      0.9498: real time      0.9551

 eigenvalue-minimisations  :    16
 total energy-change (2. order) : 0.7613448E+02  (-0.2623652E+03)
 number of electron       8.0000000 magnetization 
 augmentation part        8.0000000 magnetization 

 Free energy of the ion-electron system (eV)
  ---------------------------------------------------
  alpha Z        PSCENC =         0.44832783
  Ewald energy   TEWEN  =        26.60306768
  -Hartree energ DENC   =      -386.12288572
  -exchange      EXHF   =         0.00000000
  -V(xc)+E(xc)   XCENC  =        32.30058018
  PAW double counting   =       247.56105404     -249.42875511
  entropy T*S    EENTRO =        -0.00082008
  eigenvalues    EBANDS =       -52.57929548
  atomic energy  EATOM  =       457.35320486
  Solvation  Ediel_sol  =         0.00000000
  ---------------------------------------------------
  free energy    TOTEN  =        76.13447819 eV

  energy without entropy =       76.13529827  energy(sigma->0) =       76.13488823


--------------------------------------------------------------------------------------------------------




--------------------------------------- Iteration      1(   2)  ---------------------------------------


     EDDAV:  cpu time      0.2631: real time      0.2669
       DOS:  cpu time      0.0001: real time      0.0001
    --------------------------------------------
      LOOP:  cpu time      0.2632: real time      0.2670

 eigenvalue-minimisations  :    32
 total energy-change (2. order) :-0.7276004E+02  (-0.7275199E+02)
 number of electron       8.0000000 magnetization 
 augmentation part        8.0000000 magnetization 

 Free energy of the ion-electron system (eV)
  ---------------------------------------------------
  alpha Z        PSCENC =         0.44832783
  Ewald energy   TEWEN  =        26.60306768
  -Hartree energ DENC   =      -386.12288572
  -exchange      EXHF   =         0.00000000
  -V(xc)+E(xc)   XCENC  =        32.30058018
  PAW double counting   =       247.56105404     -249.42875511
  entropy T*S    EENTRO =        -0.00000000
  eigenvalues    EBANDS =      -125.34015164
  atomic energy  EATOM  =       457.35320486
  Solvation  Ediel_sol  =         0.00000000
  ---------------------------------------------------
  free energy    TOTEN  =         3.37444211 eV

  energy without entropy =        3.37444211  energy(sigma->0) =        3.37444211


--------------------------------------------------------------------------------------------------------




--------------------------------------- Iteration      1(   3)  ---------------------------------------


     EDDAV:  cpu time      0.1211: real time      0.1243
       DOS:  cpu time      0.0001: real time      0.0001
    --------------------------------------------
      LOOP:  cpu time      0.1212: real time      0.1244

 eigenvalue-minimisations  :    16
 total energy-change (2. order) :-0.1914172E+02  (-0.1914172E+02)
 number of electron       8.0000000 magnetization 
 augmentation part        8.0000000 magnetization 

 Free energy of the ion-electron system (eV)
  ---------------------------------------------------
  alpha Z        PSCENC =         0.44832783
  Ewald energy   TEWEN  =        26.60306768
  -Hartree energ DENC   =      -386.12288572
  -exchange      EXHF   =         0.00000000
  -V(xc)+E(xc)   XCENC  =        32.30058018
  PAW double counting   =       247.56105404     -249.42875511
  entropy T*S    EENTRO =        -0.00000000
  eigenvalues    EBANDS =      -144.48187479
  atomic energy  EATOM  =       457.35320486
  Solvation  Ediel_sol  =         0.00000000
  ---------------------------------------------------
  free energy    TOTEN  =       -15.76728104 eV

  energy without entropy =      -15.76728104  energy(sigma->0) =      -15.76728104


--------------------------------------------------------------------------------------------------------




--------------------------------------- Iteration      1(   4)  ---------------------------------------


     EDDAV:  cpu time      0.1955: real time      0.1984
       DOS:  cpu time      0.0001: real time      0.0001
    --------------------------------------------
      LOOP:  cpu time      0.1957: real time      0.1985

 eigenvalue-minimisations  :    32
 total energy-change (2. order) :-0.6024373E+00  (-0.6024373E+00)
 number of electron       8.0000000 magnetization 
 augmentation part        8.0000000 magnetization 

 Free energy of the ion-electron system (eV)
  ---------------------------------------------------
  alpha Z        PSCENC =         0.44832783
  Ewald energy   TEWEN  =        26.60306768
  -Hartree energ DENC   =      -386.12288572
  -exchange      EXHF   =         0.00000000
  -V(xc)+E(xc)   XCENC  =        32.30058018
  PAW double counting   =       247.56105404     -249.42875511
  entropy T*S    EENTRO =        -0.00000000
  eigenvalues    EBANDS =      -145.08431210
  atomic energy  EATOM  =       457.35320486
  Solvation  Ediel_sol  =         0.00000000
  ---------------------------------------------------
  free energy    TOTEN  =       -16.36971835 eV

  energy without entropy =      -16.36971835  energy(sigma->0) =      -16.36971835


--------------------------------------------------------------------------------------------------------




--------------------------------------- Iteration      1(   5)  ---------------------------------------


     EDDAV:  cpu time      0.1159: real time      0.1163
       DOS:  cpu time      0.0001: real time      0.0001
    CHARGE:  cpu time      0.0893: real time      0.0899
    MIXING:  cpu time      0.0346: real time      0.0348
    --------------------------------------------
      LOOP:  cpu time      0.2399: real time      0.2411

 eigenvalue-minimisations  :    16
 total energy-change (2. order) :-0.1661336E-03  (-0.1661336E-03)
 number of electron       7.9999995 magnetization 
 augmentation part        0.8466413 magnetization 

 Broyden mixing:
  rms(total) = 0.79867E+00    rms(broyden)= 0.79866E+00
  rms(prec ) = 0.12175E+01
  weight for this iteration     100.00

 Free energy of the ion-electron system (eV)
  ---------------------------------------------------
  alpha Z        PSCENC =         0.44832783
  Ewald energy   TEWEN  =        26.60306768
  -Hartree energ DENC   =      -386.12288572
  -exchange      EXHF   =         0.00000000
  -V(xc)+E(xc)   XCENC  =        32.30058018
  PAW double counting   =       247.56105404     -249.42875511
  entropy T*S    EENTRO =        -0.00000000
  eigenvalues    EBANDS =      -145.08447823
  atomic energy  EATOM  =       457.35320486
  Solvation  Ediel_sol  =         0.00000000
  ---------------------------------------------------
  free energy    TOTEN  =       -16.36988448 eV

  energy without entropy =      -16.36988448  energy(sigma->0) =      -16.36988448


--------------------------------------------------------------------------------------------------------




--------------------------------------- Iteration      1(   6)  ---------------------------------------


    POTLOK:  cpu time      0.7404: real time      0.7434
    SETDIJ:  cpu time      0.0025: real time      0.0026
     EDDAV:  cpu time      0.1594: real time      0.1609
       DOS:  cpu time      0.0001: real time      0.0001
    CHARGE:  cpu time      0.0679: real time      0.0680
    MIXING:  cpu time      0.0343: real time      0.0349
    --------------------------------------------
      LOOP:  cpu time      1.0046: real time      1.0098

 eigenvalue-minimisations  :    16
 total energy-change (2. order) : 0.1964951E+01  (-0.9807230E+00)
 number of electron       7.9999996 magnetization 
 augmentation part        0.7074959 magnetization 

 Broyden mixing:
  rms(total) = 0.30611E+00    rms(broyden)= 0.30611E+00
  rms(prec ) = 0.40452E+00
  weight for this iteration     100.00

 eigenvalues of (default mixing * dielectric matrix)
  average eigenvalue GAMMA=   0.9195
  0.9195

 Free energy of the ion-electron system (eV)
  ---------------------------------------------------
  alpha Z        PSCENC =         0.44832783
  Ewald energy   TEWEN  =        26.60306768
  -Hartree energ DENC   =      -410.79606350
  -exchange      EXHF   =         0.00000000
  -V(xc)+E(xc)   XCENC  =        33.67381876
  PAW double counting   =       302.95337946     -305.19771507
  entropy T*S    EENTRO =        -0.00000000
  eigenvalues    EBANDS =      -119.44295318
  atomic energy  EATOM  =       457.35320486
  Solvation  Ediel_sol  =         0.00000000
  ---------------------------------------------------
  free energy    TOTEN  =       -14.40493316 eV

  energy without entropy =      -14.40493316  energy(sigma->0) =      -14.40493316


--------------------------------------------------------------------------------------------------------




--------------------------------------- Iteration      1(   7)  ---------------------------------------


    POTLOK:  cpu time      0.6982: real time      0.7021
    SETDIJ:  cpu time      0.0021: real time      0.0021
     EDDAV:  cpu time      0.1637: real time      0.1641
       DOS:  cpu time      0.0001: real time      0.0001
    CHARGE:  cpu time      0.0598: real time      0.0600
    MIXING:  cpu time      0.0333: real time      0.0334
    --------------------------------------------
      LOOP:  cpu time      0.9573: real time      0.9619

 eigenvalue-minimisations  :    24
 total energy-change (2. order) : 0.1127166E+00  (-0.1453445E-01)
 number of electron       7.9999996 magnetization 
 augmentation part        0.7031686 magnetization 

 Broyden mixing:
  rms(total) = 0.19061E+00    rms(broyden)= 0.19061E+00
  rms(prec ) = 0.25577E+00
  weight for this iteration     100.00

 eigenvalues of (default mixing * dielectric matrix)
  average eigenvalue GAMMA=   1.7393
  1.0406  2.4380

 Free energy of the ion-electron system (eV)
  ---------------------------------------------------
  alpha Z        PSCENC =         0.44832783
  Ewald energy   TEWEN  =        26.60306768
  -Hartree energ DENC   =      -414.70238626
  -exchange      EXHF   =         0.00000000
  -V(xc)+E(xc)   XCENC  =        33.88270332
  PAW double counting   =       315.91022826     -318.11835155
  entropy T*S    EENTRO =        -0.00000000
  eigenvalues    EBANDS =      -115.66901075
  atomic energy  EATOM  =       457.35320486
  Solvation  Ediel_sol  =         0.00000000
  ---------------------------------------------------
  free energy    TOTEN  =       -14.29221661 eV

  energy without entropy =      -14.29221661  energy(sigma->0) =      -14.29221661


--------------------------------------------------------------------------------------------------------




--------------------------------------- Iteration      1(   8)  ---------------------------------------


    POTLOK:  cpu time      0.6562: real time      0.6585
    SETDIJ:  cpu time      0.0021: real time      0.0021
     EDDAV:  cpu time      0.1455: real time      0.1467
       DOS:  cpu time      0.0001: real time      0.0001
    CHARGE:  cpu time      0.0503: real time      0.0504
    MIXING:  cpu time      0.0460: real time      0.0473
    --------------------------------------------
      LOOP:  cpu time      0.9003: real time      0.9052

 eigenvalue-minimisations  :    24
 total energy-change (2. order) : 0.8967503E-01  (-0.7254374E-02)
 number of electron       7.9999996 magnetization 
 augmentation part        0.7016443 magnetization 

 Broyden mixing:
  rms(total) = 0.21404E-01    rms(broyden)= 0.21404E-01
  rms(prec ) = 0.52143E-01
  weight for this iteration     100.00

 eigenvalues of (default mixing * dielectric matrix)
  average eigenvalue GAMMA=   1.5163
  2.3523  1.0271  1.1696

 Free energy of the ion-electron system (eV)
  ---------------------------------------------------
  alpha Z        PSCENC =         0.44832783
  Ewald energy   TEWEN  =        26.60306768
  -Hartree energ DENC   =      -420.17941518
  -exchange      EXHF   =         0.00000000
  -V(xc)+E(xc)   XCENC  =        34.19731627
  PAW double counting   =       334.08334177     -336.24476319
  entropy T*S    EENTRO =        -0.00000000
  eigenvalues    EBANDS =      -110.46362162
  atomic energy  EATOM  =       457.35320486
  Solvation  Ediel_sol  =         0.00000000
  ---------------------------------------------------
  free energy    TOTEN  =       -14.20254157 eV

  energy without entropy =      -14.20254157  energy(sigma->0) =      -14.20254157


--------------------------------------------------------------------------------------------------------




--------------------------------------- Iteration      1(   9)  ---------------------------------------


    POTLOK:  cpu time      0.6582: real time      0.6610
    SETDIJ:  cpu time      0.0021: real time      0.0021
     EDDAV:  cpu time      0.1398: real time      0.1402
       DOS:  cpu time      0.0001: real time      0.0001
    CHARGE:  cpu time      0.0543: real time      0.0545
    MIXING:  cpu time      0.0428: real time      0.0430
    --------------------------------------------
      LOOP:  cpu time      0.8973: real time      0.9009

 eigenvalue-minimisations  :    24
 total energy-change (2. order) :-0.3707059E-02  (-0.4280223E-03)
 number of electron       7.9999996 magnetization 
 augmentation part        0.6990018 magnetization 

 Broyden mixing:
  rms(total) = 0.13830E-01    rms(broyden)= 0.13830E-01
  rms(prec ) = 0.36282E-01
  weight for this iteration     100.00

 eigenvalues of (default mixing * dielectric matrix)
  average eigenvalue GAMMA=   1.9057
  0.9922  0.9922  3.1161  2.5224

 Free energy of the ion-electron system (eV)
  ---------------------------------------------------
  alpha Z        PSCENC =         0.44832783
  Ewald energy   TEWEN  =        26.60306768
  -Hartree energ DENC   =      -420.84003004
  -exchange      EXHF   =         0.00000000
  -V(xc)+E(xc)   XCENC  =        34.21615335
  PAW double counting   =       332.48710506     -334.65274861
  entropy T*S    EENTRO =        -0.00000000
  eigenvalues    EBANDS =      -109.82132876
  atomic energy  EATOM  =       457.35320486
  Solvation  Ediel_sol  =         0.00000000
  ---------------------------------------------------
  free energy    TOTEN  =       -14.20624863 eV

  energy without entropy =      -14.20624863  energy(sigma->0) =      -14.20624863


--------------------------------------------------------------------------------------------------------




--------------------------------------- Iteration      1(  10)  ---------------------------------------


    POTLOK:  cpu time      0.6646: real time      0.6676
    SETDIJ:  cpu time      0.0024: real time      0.0024
     EDDAV:  cpu time      0.1117: real time      0.1130
       DOS:  cpu time      0.0001: real time      0.0001
    CHARGE:  cpu time      0.0594: real time      0.0603
    MIXING:  cpu time      0.0504: real time      0.0511
    --------------------------------------------
      LOOP:  cpu time      0.8886: real time      0.8944

 eigenvalue-minimisations  :    16
 total energy-change (2. order) :-0.8671768E-02  (-0.4035548E-03)
 number of electron       7.9999996 magnetization 
 augmentation part        0.6996566 magnetization 

 Broyden mixing:
  rms(total) = 0.64834E-02    rms(broyden)= 0.64834E-02
  rms(prec ) = 0.13530E-01
  weight for this iteration     100.00

 eigenvalues of (default mixing * dielectric matrix)
  average eigenvalue GAMMA=   2.1011
  3.6192  1.0010  1.0010  2.4421  2.4421

 Free energy of the ion-electron system (eV)
  ---------------------------------------------------
  alpha Z        PSCENC =         0.44832783
  Ewald energy   TEWEN  =        26.60306768
  -Hartree energ DENC   =      -421.46742484
  -exchange      EXHF   =         0.00000000
  -V(xc)+E(xc)   XCENC  =        34.21871885
  PAW double counting   =       329.05720171     -331.21617699
  entropy T*S    EENTRO =        -0.00000000
  eigenvalues    EBANDS =      -109.21183950
  atomic energy  EATOM  =       457.35320486
  Solvation  Ediel_sol  =         0.00000000
  ---------------------------------------------------
  free energy    TOTEN  =       -14.21492040 eV

  energy without entropy =      -14.21492040  energy(sigma->0) =      -14.21492040


--------------------------------------------------------------------------------------------------------




--------------------------------------- Iteration      1(  11)  ---------------------------------------


    POTLOK:  cpu time      0.6254: real time      0.6271
    SETDIJ:  cpu time      0.0022: real time      0.0022
     EDDAV:  cpu time      0.1039: real time      0.1042
       DOS:  cpu time      0.0001: real time      0.0001
    CHARGE:  cpu time      0.0498: real time      0.0501
    MIXING:  cpu time      0.0493: real time      0.0494
    --------------------------------------------
      LOOP:  cpu time      0.8307: real time      0.8330

 eigenvalue-minimisations  :    16
 total energy-change (2. order) :-0.7375364E-02  (-0.4861890E-03)
 number of electron       7.9999996 magnetization 
 augmentation part        0.6973851 magnetization 

 Broyden mixing:
  rms(total) = 0.94258E-02    rms(broyden)= 0.94258E-02
  rms(prec ) = 0.14435E-01
  weight for this iteration     100.00

 eigenvalues of (default mixing * dielectric matrix)
  average eigenvalue GAMMA=   2.0488
  4.1928  2.8594  2.3996  0.9994  0.9994  0.8420

 Free energy of the ion-electron system (eV)
  ---------------------------------------------------
  alpha Z        PSCENC =         0.44832783
  Ewald energy   TEWEN  =        26.60306768
  -Hartree energ DENC   =      -422.02498935
  -exchange      EXHF   =         0.00000000
  -V(xc)+E(xc)   XCENC  =        34.24140367
  PAW double counting   =       331.05549266     -333.21892268
  entropy T*S    EENTRO =        -0.00000000
  eigenvalues    EBANDS =      -108.67988043
  atomic energy  EATOM  =       457.35320486
  Solvation  Ediel_sol  =         0.00000000
  ---------------------------------------------------
  free energy    TOTEN  =       -14.22229576 eV

  energy without entropy =      -14.22229576  energy(sigma->0) =      -14.22229576


--------------------------------------------------------------------------------------------------------




--------------------------------------- Iteration      1(  12)  ---------------------------------------


    POTLOK:  cpu time      0.6584: real time      0.6622
    SETDIJ:  cpu time      0.0021: real time      0.0021
     EDDAV:  cpu time      0.2041: real time      0.2095
       DOS:  cpu time      0.0001: real time      0.0001
    CHARGE:  cpu time      0.0586: real time      0.0593
    MIXING:  cpu time      0.0530: real time      0.0552
    --------------------------------------------
      LOOP:  cpu time      0.9765: real time      0.9884

 eigenvalue-minimisations  :    32
 total energy-change (2. order) :-0.8336929E-03  (-0.1179417E-03)
 number of electron       7.9999996 magnetization 
 augmentation part        0.6988455 magnetization 

 Broyden mixing:
  rms(total) = 0.20147E-02    rms(broyden)= 0.20147E-02
  rms(prec ) = 0.35015E-02
  weight for this iteration     100.00

 eigenvalues of (default mixing * dielectric matrix)
  average eigenvalue GAMMA=   2.3251
  5.2327  2.9236  2.9236  2.2671  1.0360  0.9464  0.9464

 Free energy of the ion-electron system (eV)
  ---------------------------------------------------
  alpha Z        PSCENC =         0.44832783
  Ewald energy   TEWEN  =        26.60306768
  -Hartree energ DENC   =      -421.69150021
  -exchange      EXHF   =         0.00000000
  -V(xc)+E(xc)   XCENC  =        34.21999453
  PAW double counting   =       330.19729122     -332.35753189
  entropy T*S    EENTRO =        -0.00000000
  eigenvalues    EBANDS =      -108.99598349
  atomic energy  EATOM  =       457.35320486
  Solvation  Ediel_sol  =         0.00000000
  ---------------------------------------------------
  free energy    TOTEN  =       -14.22312946 eV

  energy without entropy =      -14.22312946  energy(sigma->0) =      -14.22312946


--------------------------------------------------------------------------------------------------------




--------------------------------------- Iteration      1(  13)  ---------------------------------------


    POTLOK:  cpu time      0.6404: real time      0.6430
    SETDIJ:  cpu time      0.0021: real time      0.0021
     EDDAV:  cpu time      0.1393: real time      0.1399
       DOS:  cpu time      0.0001: real time      0.0001
    CHARGE:  cpu time      0.0502: real time      0.0504
    MIXING:  cpu time      0.0454: real time      0.0455
    --------------------------------------------
      LOOP:  cpu time      0.8775: real time      0.8809

 eigenvalue-minimisations  :    24
 total energy-change (2. order) :-0.1208521E-02  (-0.2143400E-04)
 number of electron       7.9999996 magnetization 
 augmentation part        0.6991554 magnetization 

 Broyden mixing:
  rms(total) = 0.14251E-02    rms(broyden)= 0.14251E-02
  rms(prec ) = 0.18520E-02
  weight for this iteration     100.00

 eigenvalues of (default mixing * dielectric matrix)
  average eigenvalue GAMMA=   2.1969
  5.6979  3.1671  2.5723  2.2148  1.0948  0.9605  0.9605  0.9072

 Free energy of the ion-electron system (eV)
  ---------------------------------------------------
  alpha Z        PSCENC =         0.44832783
  Ewald energy   TEWEN  =        26.60306768
  -Hartree energ DENC   =      -421.60941987
  -exchange      EXHF   =         0.00000000
  -V(xc)+E(xc)   XCENC  =        34.21448602
  PAW double counting   =       330.08602001     -332.24527634
  entropy T*S    EENTRO =        -0.00000000
  eigenvalues    EBANDS =      -109.07474817
  atomic energy  EATOM  =       457.35320486
  Solvation  Ediel_sol  =         0.00000000
  ---------------------------------------------------
  free energy    TOTEN  =       -14.22433798 eV

  energy without entropy =      -14.22433798  energy(sigma->0) =      -14.22433798


--------------------------------------------------------------------------------------------------------




--------------------------------------- Iteration      1(  14)  ---------------------------------------


    POTLOK:  cpu time      0.6342: real time      0.6377
    SETDIJ:  cpu time      0.0031: real time      0.0032
     EDDAV:  cpu time      0.1858: real time      0.1872
       DOS:  cpu time      0.0001: real time      0.0001
    --------------------------------------------
      LOOP:  cpu time      0.8232: real time      0.8282

 eigenvalue-minimisations  :    32
 total energy-change (2. order) :-0.7002340E-04  (-0.1392646E-05)
 number of electron       7.9999996 magnetization 
 augmentation part        0.6991554 magnetization 

 Free energy of the ion-electron system (eV)
  ---------------------------------------------------
  alpha Z        PSCENC =         0.44832783
  Ewald energy   TEWEN  =        26.60306768
  -Hartree energ DENC   =      -421.61209734
  -exchange      EXHF   =         0.00000000
  -V(xc)+E(xc)   XCENC  =        34.21457721
  PAW double counting   =       330.07427745     -332.23393595
  entropy T*S    EENTRO =        -0.00000000
  eigenvalues    EBANDS =      -109.07182974
  atomic energy  EATOM  =       457.35320486
  Solvation  Ediel_sol  =         0.00000000
  ---------------------------------------------------
  free energy    TOTEN  =       -14.22440800 eV

  energy without entropy =      -14.22440800  energy(sigma->0) =      -14.22440800


--------------------------------------------------------------------------------------------------------




 average (electrostatic) potential at core
  the test charge radii are     0.7215  0.5201
  (the norm of the test charge is              1.0000)
       1 -80.4029       2 -44.7660       3 -44.7660
 
 
 
 E-fermi :  -6.5440     XC(G=0):  -0.9849     alpha+bet : -0.2602

 Fermi energy:        -6.5439586978

 k-point     1 :       0.0000    0.0000    0.0000
  band No.  band energies     occupation 
      1     -25.2997      2.00000
      2     -13.0932      2.00000
      3      -9.0906      2.00000
      4      -7.0524      2.00000
      5      -1.0121      0.00000
      6       1.1471      0.00000
      7       1.3021      0.00000
      8       1.8518      0.00000


--------------------------------------------------------------------------------------------------------


 soft charge-density along one line, spin component           1
         0         1         2         3         4         5         6         7         8         9
 total charge-density along one line
 
 pseudopotential strength for first ion, spin component:           1
 13.779  -0.523  -0.000   0.000  -0.125   0.000  -0.000   0.006
 -0.523   0.119   0.000  -0.000   0.015  -0.000   0.000  -0.003
 -0.000   0.000 -10.553   0.000  -0.000   0.287  -0.000   0.000
  0.000  -0.000   0.000 -10.306   0.000  -0.000   0.246  -0.000
 -0.125   0.015  -0.000   0.000 -10.450   0.000  -0.000   0.270
  0.000  -0.000   0.287  -0.000   0.000   0.128   0.000  -0.000
 -0.000   0.000  -0.000   0.246  -0.000   0.000   0.141   0.000
  0.006  -0.003   0.000  -0.000   0.270  -0.000   0.000   0.134
 total augmentation occupancy for first ion, spin component:           1
  1.843   0.164   0.000   0.000  -0.162   0.000   0.000   0.062
  0.164   0.039   0.000   0.000   0.181   0.000   0.000   0.031
  0.000   0.000   1.426   0.000   0.000   0.269   0.000   0.000
  0.000   0.000   0.000   1.810   0.000   0.000   0.096   0.000
 -0.162   0.181   0.000   0.000   1.585   0.000   0.000   0.200
  0.000   0.000   0.269   0.000   0.000   0.051   0.000   0.000
  0.000   0.000   0.000   0.096   0.000   0.000   0.005   0.000
  0.062   0.031   0.000   0.000   0.200   0.000   0.000   0.029


------------------------ aborting loop because EDIFF is reached ----------------------------------------


    CHARGE:  cpu time      0.0515: real time      0.0518
    FORLOC:  cpu time      0.0690: real time      0.0691
    FORNL :  cpu time      0.0102: real time      0.0103
    STRESS:  cpu time      0.1168: real time      0.1186
    FORHAR:  cpu time      0.2076: real time      0.2110
    MIXING:  cpu time      0.0400: real time      0.0403
    OFIELD:  cpu time      0.0001: real time      0.0001

  FORCE on cell =-STRESS in cart. coord.  units (eV):
  Direction    XX          YY          ZZ          XY          YZ          ZX
  --------------------------------------------------------------------------------------
  Alpha Z     0.44833     0.44833     0.44833
  Ewald      12.60061    69.29602   -55.29360    -0.00000    -0.00000     0.00000
  Hartree   141.38381   150.96879   129.24333    -0.00000    -0.00000    -0.00000
  E(xc)     -36.25895   -36.05631   -36.55052    -0.00000     0.00000     0.00000
  Local    -242.87987  -293.05380  -183.82470     0.00000     0.00000     0.00000
  n-local   -31.38287   -30.61180   -31.03751    -0.00000     0.00000    -0.00000
  augment     6.80184     5.78942     8.21279    -0.00000     0.00000    -0.00000
  Kinetic   149.85496   134.29770   168.81221     0.00000     0.00000    -0.00000
  Fock        0.00000     0.00000     0.00000     0.00000     0.00000     0.00000
  -------------------------------------------------------------------------------------
  Total       0.56786     1.07834     0.01032     0.00000     0.00000     0.00000
  in kB       1.81916     3.45448     0.03307     0.00000     0.00000     0.00000
  external pressure =        1.77 kB  Pullay stress =        0.00 kB


 VOLUME and BASIS-vectors are now :
 -----------------------------------------------------------------------------
  energy-cutoff  :     1000.00
  volume of cell :      500.13
      direct lattice vectors                 reciprocal lattice vectors
     7.937700000  0.000000000  0.000000000     0.125981078  0.000000000  0.000000000
     0.000000000  7.937700000  0.000000000     0.000000000  0.125981078  0.000000000
     0.000000000  0.000000000  7.937700000     0.000000000  0.000000000  0.125981078

  length of vectors
     7.937700000  7.937700000  7.937700000     0.125981078  0.125981078  0.125981078


 FORCES acting on ions
    electron-ion (+dipol)            ewald-force                    non-local-force                 convergence-correction
 -----------------------------------------------------------------------------------------------
   0.642E+02 -.439E-15 -.699E-15   -.115E+03 0.142E-13 0.210E-16   0.495E+02 -.218E-25 0.539E-21   -.444E-02 -.273E-13 -.521E-14
   -.517E+02 0.728E+02 -.216E-07   0.574E+02 -.807E+02 0.134E-16   -.517E+01 0.720E+01 -.151E-23   -.985E-03 0.800E-03 0.546E-16
   -.517E+02 -.728E+02 0.384E-07   0.574E+02 0.807E+02 0.118E-16   -.517E+01 -.720E+01 0.563E-23   -.985E-03 -.800E-03 -.678E-15
 -----------------------------------------------------------------------------------------------
   -.392E+02 0.000E+00 0.168E-07   -.711E-14 0.000E+00 0.461E-16   0.392E+02 0.888E-15 0.543E-21   -.641E-02 -.290E-13 -.583E-14
 
 
 POSITION                                       TOTAL-FORCE (eV/Angst)
 -----------------------------------------------------------------------------------
      0.00000      0.00000      0.00000        -1.035061     -0.000000     -0.000000
      0.58210      7.18097      0.00000         0.517530     -0.708952     -0.000000
      0.58210      0.75673      0.00000         0.517530      0.708952      0.000000
 -----------------------------------------------------------------------------------
    total drift:                               -0.000854     -0.000000      0.000000


--------------------------------------------------------------------------------------------------------



  FREE ENERGIE OF THE ION-ELECTRON SYSTEM (eV)
  ---------------------------------------------------
  free  energy   TOTEN  =       -14.22440800 eV

  energy  without entropy=      -14.22440800  energy(sigma->0) =      -14.22440800
 


--------------------------------------------------------------------------------------------------------


    POTLOK:  cpu time      0.6605: real time      0.6687


--------------------------------------------------------------------------------------------------------


 Quasi-Newton relaxation of ions (Broydens 2nd method)
  g(Force)  = 0.743E-01   g(Stress)= 0.000E+00

 Reset! Starting new Quasi-Newton update for ions 


--------------------------------------------------------------------------------------------------------


    WAVPRE:  cpu time      2.1397: real time      2.1692
    FEWALD:  cpu time      0.0003: real time      0.0003
    ORTHCH:  cpu time      0.0035: real time      0.0037
     LOOP+:  cpu time     13.2285: real time     13.3358


--------------------------------------- Iteration      2(   1)  ---------------------------------------


    POTLOK:  cpu time      0.6183: real time      0.6217
    SETDIJ:  cpu time      0.0024: real time      0.0024
     EDDAV:  cpu time      0.1244: real time      0.1249
       DOS:  cpu time      0.0001: real time      0.0001
    CHARGE:  cpu time      0.0563: real time      0.0565
    MIXING:  cpu time      0.0432: real time      0.0438
    --------------------------------------------
      LOOP:  cpu time      0.8449: real time      0.8495

 eigenvalue-minimisations  :    16
 total energy-change (2. order) : 0.3466559E-02  (-0.1580636E+00)
 number of electron       7.9999997 magnetization 
 augmentation part        0.6706234 magnetization 

 Broyden mixing:
  rms(total) = 0.82486E-01    rms(broyden)= 0.82486E-01
  rms(prec ) = 0.11234E+00
  weight for this iteration     100.00

 Free energy of the ion-electron system (eV)
  ---------------------------------------------------
  alpha Z        PSCENC =         0.44832783
  Ewald energy   TEWEN  =        18.58057992
  -Hartree energ DENC   =      -417.40633508
  -exchange      EXHF   =         0.00000000
  -V(xc)+E(xc)   XCENC  =        34.00941128
  PAW double counting   =       330.02297499     -332.18238461
  entropy T*S    EENTRO =        -0.00000000
  eigenvalues    EBANDS =      -105.04665061
  atomic energy  EATOM  =       457.35320486
  Solvation  Ediel_sol  =         0.00000000
  ---------------------------------------------------
  free energy    TOTEN  =       -14.22087142 eV

  energy without entropy =      -14.22087142  energy(sigma->0) =      -14.22087142


--------------------------------------------------------------------------------------------------------




--------------------------------------- Iteration      2(   2)  ---------------------------------------


    POTLOK:  cpu time      0.6170: real time      0.6203
    SETDIJ:  cpu time      0.0031: real time      0.0033
     EDDAV:  cpu time      0.1893: real time      0.1915
       DOS:  cpu time      0.0001: real time      0.0001
    CHARGE:  cpu time      0.0513: real time      0.0516
    MIXING:  cpu time      0.0312: real time      0.0313
    --------------------------------------------
      LOOP:  cpu time      0.8921: real time      0.8981

 eigenvalue-minimisations  :    32
 total energy-change (2. order) : 0.1208975E-01  (-0.7809255E-02)
 number of electron       7.9999996 magnetization 
 augmentation part        0.6792218 magnetization 

 Broyden mixing:
  rms(total) = 0.30292E-01    rms(broyden)= 0.30291E-01
  rms(prec ) = 0.35652E-01
  weight for this iteration     100.00

 eigenvalues of (default mixing * dielectric matrix)
  average eigenvalue GAMMA=   1.1561
  1.1561

 Free energy of the ion-electron system (eV)
  ---------------------------------------------------
  alpha Z        PSCENC =         0.44832783
  Ewald energy   TEWEN  =        18.58057992
  -Hartree energ DENC   =      -415.47327254
  -exchange      EXHF   =         0.00000000
  -V(xc)+E(xc)   XCENC  =        33.90094859
  PAW double counting   =       323.45196295     -325.57616318
  entropy T*S    EENTRO =        -0.00000000
  eigenvalues    EBANDS =      -106.89437010
  atomic energy  EATOM  =       457.35320486
  Solvation  Ediel_sol  =         0.00000000
  ---------------------------------------------------
  free energy    TOTEN  =       -14.20878167 eV

  energy without entropy =      -14.20878167  energy(sigma->0) =      -14.20878167


--------------------------------------------------------------------------------------------------------




--------------------------------------- Iteration      2(   3)  ---------------------------------------


    POTLOK:  cpu time      0.5616: real time      0.5643
    SETDIJ:  cpu time      0.0022: real time      0.0022
     EDDAV:  cpu time      0.1441: real time      0.1447
       DOS:  cpu time      0.0001: real time      0.0001
    CHARGE:  cpu time      0.0507: real time      0.0514
    MIXING:  cpu time      0.0235: real time      0.0236
    --------------------------------------------
      LOOP:  cpu time      0.7820: real time      0.7862

 eigenvalue-minimisations  :    24
 total energy-change (2. order) : 0.5258868E-03  (-0.1165058E-03)
 number of electron       7.9999996 magnetization 
 augmentation part        0.6801701 magnetization 

 Broyden mixing:
  rms(total) = 0.15525E-01    rms(broyden)= 0.15525E-01
  rms(prec ) = 0.18154E-01
  weight for this iteration     100.00

 eigenvalues of (default mixing * dielectric matrix)
  average eigenvalue GAMMA=   1.6523
  1.0964  2.2082

 Free energy of the ion-electron system (eV)
  ---------------------------------------------------
  alpha Z        PSCENC =         0.44832783
  Ewald energy   TEWEN  =        18.58057992
  -Hartree energ DENC   =      -415.30601873
  -exchange      EXHF   =         0.00000000
  -V(xc)+E(xc)   XCENC  =        33.89247305
  PAW double counting   =       321.05294886     -323.16719723
  entropy T*S    EENTRO =        -0.00000000
  eigenvalues    EBANDS =      -107.06257435
  atomic energy  EATOM  =       457.35320486
  Solvation  Ediel_sol  =         0.00000000
  ---------------------------------------------------
  free energy    TOTEN  =       -14.20825578 eV

  energy without entropy =      -14.20825578  energy(sigma->0) =      -14.20825578


--------------------------------------------------------------------------------------------------------




--------------------------------------- Iteration      2(   4)  ---------------------------------------


    POTLOK:  cpu time      0.6015: real time      0.6074
    SETDIJ:  cpu time      0.0021: real time      0.0021
     EDDAV:  cpu time      0.1542: real time      0.1549
       DOS:  cpu time      0.0001: real time      0.0001
    --------------------------------------------
      LOOP:  cpu time      0.7579: real time      0.7644

 eigenvalue-minimisations  :    24
 total energy-change (2. order) : 0.9253099E-04  (-0.5845298E-04)
 number of electron       7.9999996 magnetization 
 augmentation part        0.6801701 magnetization 

 Free energy of the ion-electron system (eV)
  ---------------------------------------------------
  alpha Z        PSCENC =         0.44832783
  Ewald energy   TEWEN  =        18.58057992
  -Hartree energ DENC   =      -415.34513203
  -exchange      EXHF   =         0.00000000
  -V(xc)+E(xc)   XCENC  =        33.89528906
  PAW double counting   =       318.92481372     -321.03230407
  entropy T*S    EENTRO =        -0.00000000
  eigenvalues    EBANDS =      -107.03294253
  atomic energy  EATOM  =       457.35320486
  Solvation  Ediel_sol  =         0.00000000
  ---------------------------------------------------
  free energy    TOTEN  =       -14.20816325 eV

  energy without entropy =      -14.20816325  energy(sigma->0) =      -14.20816325


--------------------------------------------------------------------------------------------------------




 average (electrostatic) potential at core
  the test charge radii are     0.7215  0.5201
  (the norm of the test charge is              1.0000)
       1 -80.3585       2 -44.2237       3 -44.2237
 
 
 
 E-fermi :  -6.4810     XC(G=0):  -1.0082     alpha+bet : -0.2602

 Fermi energy:        -6.4809941515

 k-point     1 :       0.0000    0.0000    0.0000
  band No.  band energies     occupation 
      1     -24.8274      2.00000
      2     -12.7081      2.00000
      3      -9.0217      2.00000
      4      -6.9593      2.00000
      5      -1.1575      0.00000
      6       1.1170      0.00000
      7       1.1299      0.00000
      8       1.7271      0.00000


--------------------------------------------------------------------------------------------------------


 soft charge-density along one line, spin component           1
         0         1         2         3         4         5         6         7         8         9
 total charge-density along one line
 
 pseudopotential strength for first ion, spin component:           1
 13.773  -0.523   0.000  -0.000  -0.115  -0.000   0.000   0.006
 -0.523   0.119  -0.000   0.000   0.015   0.000  -0.000  -0.002
  0.000  -0.000 -10.543   0.000   0.000   0.289  -0.000  -0.000
 -0.000   0.000   0.000 -10.313  -0.000  -0.000   0.250   0.000
 -0.115   0.015   0.000  -0.000 -10.449  -0.000   0.000   0.274
 -0.000   0.000   0.289  -0.000  -0.000   0.127   0.000   0.000
  0.000  -0.000  -0.000   0.250   0.000   0.000   0.139  -0.000
  0.006  -0.002  -0.000   0.000   0.274   0.000  -0.000   0.132
 total augmentation occupancy for first ion, spin component:           1
  1.849   0.144   0.000   0.000  -0.175   0.000   0.000   0.052
  0.144   0.034   0.000   0.000   0.175   0.000   0.000   0.028
  0.000   0.000   1.383   0.000   0.000   0.252   0.000   0.000
  0.000   0.000   0.000   1.810   0.000   0.000   0.091   0.000
 -0.175   0.175   0.000   0.000   1.547   0.000   0.000   0.190
  0.000   0.000   0.252   0.000   0.000   0.046   0.000   0.000
  0.000   0.000   0.000   0.091   0.000   0.000   0.005   0.000
  0.052   0.028   0.000   0.000   0.190   0.000   0.000   0.026


------------------------ aborting loop because EDIFF is reached ----------------------------------------


    CHARGE:  cpu time      0.0543: real time      0.0546
    FORLOC:  cpu time      0.0587: real time      0.0588
    FORNL :  cpu time      0.0101: real time      0.0101
    STRESS:  cpu time      0.0976: real time      0.0981
    FORHAR:  cpu time      0.1776: real time      0.1803
    MIXING:  cpu time      0.0318: real time      0.0319
    OFIELD:  cpu time      0.0000: real time      0.0000

  FORCE on cell =-STRESS in cart. coord.  units (eV):
  Direction    XX          YY          ZZ          XY          YZ          ZX
  --------------------------------------------------------------------------------------
  Alpha Z     0.44833     0.44833     0.44833
  Ewald       9.58377    64.32398   -55.32721    -0.00000    -0.00000     0.00000
  Hartree   139.19691   149.13803   126.94530    -0.00000    -0.00000    -0.00000
  E(xc)     -35.92672   -35.72003   -36.21736     0.00000     0.00000     0.00000
  Local    -238.36247  -288.42699  -180.84437     0.00000     0.00000    -0.00000
  n-local   -30.38756   -29.56347   -30.51415    -0.00000     0.00000    -0.00001
  augment     6.68024     5.73602     8.09402    -0.00000     0.00000     0.00000
  Kinetic   147.98320   132.47692   167.39463    -0.00000    -0.00000     0.00003
  Fock        0.00000     0.00000     0.00000     0.00000     0.00000     0.00000
  -------------------------------------------------------------------------------------
  Total      -0.78430    -1.58721    -0.02082     0.00000     0.00000     0.00000
  in kB      -2.51251    -5.08463    -0.06670     0.00000     0.00000     0.00000
  external pressure =       -2.55 kB  Pullay stress =        0.00 kB


 VOLUME and BASIS-vectors are now :
 -----------------------------------------------------------------------------
  energy-cutoff  :     1000.00
  volume of cell :      500.13
      direct lattice vectors                 reciprocal lattice vectors
     7.937700000  0.000000000  0.000000000     0.125981078  0.000000000  0.000000000
     0.000000000  7.937700000  0.000000000     0.000000000  0.125981078  0.000000000
     0.000000000  0.000000000  7.937700000     0.000000000  0.000000000  0.125981078

  length of vectors
     7.937700000  7.937700000  7.937700000     0.125981078  0.125981078  0.125981078


 FORCES acting on ions
    electron-ion (+dipol)            ewald-force                    non-local-force                 convergence-correction
 -----------------------------------------------------------------------------------------------
   0.585E+02 -.374E-15 0.281E-15   -.105E+03 0.142E-13 0.274E-16   0.478E+02 0.129E-24 0.229E-21   -.881E-01 -.299E-13 0.262E-13
   -.487E+02 0.687E+02 0.175E-07   0.525E+02 -.739E+02 0.794E-17   -.440E+01 0.620E+01 0.169E-21   -.843E-02 0.297E-02 0.285E-14
   -.487E+02 -.687E+02 -.569E-07   0.525E+02 0.739E+02 0.108E-16   -.440E+01 -.620E+01 -.167E-21   -.843E-02 -.297E-02 0.373E-14
 -----------------------------------------------------------------------------------------------
   -.389E+02 0.213E-12 -.394E-07   0.000E+00 0.000E+00 0.461E-16   0.390E+02 0.000E+00 0.231E-21   -.105E+00 -.310E-13 0.328E-13
 
 
 POSITION                                       TOTAL-FORCE (eV/Angst)
 -----------------------------------------------------------------------------------
      0.00000      0.00000      0.00000         1.217476     -0.000000      0.000000
      0.60707      7.14677      0.00000        -0.608738      0.991661      0.000000
      0.60707      0.79093      0.00000        -0.608738     -0.991661     -0.000000
 -----------------------------------------------------------------------------------
    total drift:                                0.029617      0.000000     -0.000000


--------------------------------------------------------------------------------------------------------



  FREE ENERGIE OF THE ION-ELECTRON SYSTEM (eV)
  ---------------------------------------------------
  free  energy   TOTEN  =       -14.20816325 eV

  energy  without entropy=      -14.20816325  energy(sigma->0) =      -14.20816325
 
 d Force =-0.1194634E-01[-0.982E-01, 0.743E-01]  d Energy =-0.1624475E-01 0.430E-02
 d Force = 0.8030116E+01[ 0.768E+01, 0.838E+01]  d Ewald  = 0.8022488E+01 0.763E-02


--------------------------------------------------------------------------------------------------------


    POTLOK:  cpu time      0.6150: real time      0.6171


--------------------------------------------------------------------------------------------------------


 Quasi-Newton relaxation of ions (Broydens 2nd method)
  g(Force)  = 0.131E+00   g(Stress)= 0.000E+00

 retain information from N=  1 steps
 eigenvalues of (default step * inverse Hessian matrix)
  average eigenvalue of G=   0.4299
 eigenvalue spectrum of G is  0.4299


--------------------------------------------------------------------------------------------------------


    WAVPRE:  cpu time      0.1494: real time      0.1501
    FEWALD:  cpu time      0.0003: real time      0.0003
    ORTHCH:  cpu time      0.0034: real time      0.0035
     LOOP+:  cpu time      4.4789: real time      4.5070


--------------------------------------- Iteration      3(   1)  ---------------------------------------


    POTLOK:  cpu time      0.6005: real time      0.6046
    SETDIJ:  cpu time      0.0021: real time      0.0021
     EDDAV:  cpu time      0.1058: real time      0.1063
       DOS:  cpu time      0.0001: real time      0.0001
    CHARGE:  cpu time      0.0495: real time      0.0496
    MIXING:  cpu time      0.0199: real time      0.0199
    --------------------------------------------
      LOOP:  cpu time      0.7779: real time      0.7826

 eigenvalue-minimisations  :    16
 total energy-change (2. order) :-0.3431003E-01  (-0.5149000E-01)
 number of electron       7.9999996 magnetization 
 augmentation part        0.6952743 magnetization 

 Broyden mixing:
  rms(total) = 0.43770E-01    rms(broyden)= 0.43769E-01
  rms(prec ) = 0.59641E-01
  weight for this iteration     100.00

 Free energy of the ion-electron system (eV)
  ---------------------------------------------------
  alpha Z        PSCENC =         0.44832783
  Ewald energy   TEWEN  =        23.05512328
  -Hartree energ DENC   =      -417.67585594
  -exchange      EXHF   =         0.00000000
  -V(xc)+E(xc)   XCENC  =        34.00880134
  PAW double counting   =       318.59329013     -320.69870557
  entropy T*S    EENTRO =        -0.00000000
  eigenvalues    EBANDS =      -109.32675174
  atomic energy  EATOM  =       457.35320486
  Solvation  Ediel_sol  =         0.00000000
  ---------------------------------------------------
  free energy    TOTEN  =       -14.24256581 eV

  energy without entropy =      -14.24256581  energy(sigma->0) =      -14.24256581


--------------------------------------------------------------------------------------------------------




--------------------------------------- Iteration      3(   2)  ---------------------------------------


    POTLOK:  cpu time      0.6207: real time      0.6258
    SETDIJ:  cpu time      0.0021: real time      0.0021
     EDDAV:  cpu time      0.1459: real time      0.1463
       DOS:  cpu time      0.0001: real time      0.0001
    CHARGE:  cpu time      0.0519: real time      0.0521
    MIXING:  cpu time      0.0212: real time      0.0213
    --------------------------------------------
      LOOP:  cpu time      0.8419: real time      0.8476

 eigenvalue-minimisations  :    24
 total energy-change (2. order) : 0.3474894E-02  (-0.2064997E-02)
 number of electron       7.9999996 magnetization 
 augmentation part        0.6911971 magnetization 

 Broyden mixing:
  rms(total) = 0.17460E-01    rms(broyden)= 0.17460E-01
  rms(prec ) = 0.20853E-01
  weight for this iteration     100.00

 eigenvalues of (default mixing * dielectric matrix)
  average eigenvalue GAMMA=   1.2269
  1.2269

 Free energy of the ion-electron system (eV)
  ---------------------------------------------------
  alpha Z        PSCENC =         0.44832783
  Ewald energy   TEWEN  =        23.05512328
  -Hartree energ DENC   =      -418.69949599
  -exchange      EXHF   =         0.00000000
  -V(xc)+E(xc)   XCENC  =        34.06572384
  PAW double counting   =       322.05355789     -324.17786950
  entropy T*S    EENTRO =        -0.00000000
  eigenvalues    EBANDS =      -108.33766312
  atomic energy  EATOM  =       457.35320486
  Solvation  Ediel_sol  =         0.00000000
  ---------------------------------------------------
  free energy    TOTEN  =       -14.23909092 eV

  energy without entropy =      -14.23909092  energy(sigma->0) =      -14.23909092


--------------------------------------------------------------------------------------------------------




--------------------------------------- Iteration      3(   3)  ---------------------------------------


    POTLOK:  cpu time      0.6094: real time      0.6114
    SETDIJ:  cpu time      0.0022: real time      0.0022
     EDDAV:  cpu time      0.1055: real time      0.1063
       DOS:  cpu time      0.0001: real time      0.0001
    CHARGE:  cpu time      0.0519: real time      0.0520
    MIXING:  cpu time      0.0229: real time      0.0230
    --------------------------------------------
      LOOP:  cpu time      0.7920: real time      0.7949

 eigenvalue-minimisations  :    16
 total energy-change (2. order) : 0.1833978E-03  (-0.8412747E-04)
 number of electron       7.9999996 magnetization 
 augmentation part        0.6902003 magnetization 

 Broyden mixing:
  rms(total) = 0.84018E-02    rms(broyden)= 0.84018E-02
  rms(prec ) = 0.98172E-02
  weight for this iteration     100.00

 eigenvalues of (default mixing * dielectric matrix)
  average eigenvalue GAMMA=   1.6178
  1.2223  2.0132

 Free energy of the ion-electron system (eV)
  ---------------------------------------------------
  alpha Z        PSCENC =         0.44832783
  Ewald energy   TEWEN  =        23.05512328
  -Hartree energ DENC   =      -418.86916279
  -exchange      EXHF   =         0.00000000
  -V(xc)+E(xc)   XCENC  =        34.07450874
  PAW double counting   =       323.53954226     -325.67048700
  entropy T*S    EENTRO =        -0.00000000
  eigenvalues    EBANDS =      -108.16996470
  atomic energy  EATOM  =       457.35320486
  Solvation  Ediel_sol  =         0.00000000
  ---------------------------------------------------
  free energy    TOTEN  =       -14.23890752 eV

  energy without entropy =      -14.23890752  energy(sigma->0) =      -14.23890752


--------------------------------------------------------------------------------------------------------




--------------------------------------- Iteration      3(   4)  ---------------------------------------


    POTLOK:  cpu time      0.6250: real time      0.6367
    SETDIJ:  cpu time      0.0023: real time      0.0023
     EDDAV:  cpu time      0.1064: real time      0.1070
       DOS:  cpu time      0.0001: real time      0.0001
    --------------------------------------------
      LOOP:  cpu time      0.7338: real time      0.7461

 eigenvalue-minimisations  :    16
 total energy-change (2. order) : 0.5817354E-05  (-0.2308298E-04)
 number of electron       7.9999996 magnetization 
 augmentation part        0.6902003 magnetization 

 Free energy of the ion-electron system (eV)
  ---------------------------------------------------
  alpha Z        PSCENC =         0.44832783
  Ewald energy   TEWEN  =        23.05512328
  -Hartree energ DENC   =      -418.81559874
  -exchange      EXHF   =         0.00000000
  -V(xc)+E(xc)   XCENC  =        34.07117430
  PAW double counting   =       324.48080029     -326.61386930
  entropy T*S    EENTRO =        -0.00000000
  eigenvalues    EBANDS =      -108.21806422
  atomic energy  EATOM  =       457.35320486
  Solvation  Ediel_sol  =         0.00000000
  ---------------------------------------------------
  free energy    TOTEN  =       -14.23890170 eV

  energy without entropy =      -14.23890170  energy(sigma->0) =      -14.23890170


--------------------------------------------------------------------------------------------------------




 average (electrostatic) potential at core
  the test charge radii are     0.7215  0.5201
  (the norm of the test charge is              1.0000)
       1 -80.3946       2 -44.5132       3 -44.5132
 
 
 
 E-fermi :  -6.5545     XC(G=0):  -1.0323     alpha+bet : -0.2602

 Fermi energy:        -6.5544909434

 k-point     1 :       0.0000    0.0000    0.0000
  band No.  band energies     occupation 
      1     -25.0978      2.00000
      2     -12.9171      2.00000
      3      -9.0775      2.00000
      4      -7.0167      2.00000
      5      -1.0864      0.00000
      6       1.1249      0.00000
      7       1.2297      0.00000
      8       1.7417      0.00000


--------------------------------------------------------------------------------------------------------


 soft charge-density along one line, spin component           1
         0         1         2         3         4         5         6         7         8         9
 total charge-density along one line
 
 pseudopotential strength for first ion, spin component:           1
 13.778  -0.523  -0.000   0.000  -0.121   0.000  -0.000   0.006
 -0.523   0.119   0.000  -0.000   0.015  -0.000   0.000  -0.002
 -0.000   0.000 -10.551   0.000  -0.000   0.289  -0.000   0.000
  0.000  -0.000   0.000 -10.312   0.000  -0.000   0.249  -0.000
 -0.121   0.015  -0.000   0.000 -10.453   0.000  -0.000   0.273
  0.000  -0.000   0.289  -0.000   0.000   0.128   0.000  -0.000
 -0.000   0.000  -0.000   0.249  -0.000   0.000   0.140   0.000
  0.006  -0.002   0.000  -0.000   0.273  -0.000   0.000   0.133
 total augmentation occupancy for first ion, spin component:           1
  1.845   0.156   0.000   0.000  -0.168   0.000   0.000   0.057
  0.156   0.037   0.000   0.000   0.178   0.000   0.000   0.030
  0.000   0.000   1.407   0.000   0.000   0.261   0.000   0.000
  0.000   0.000   0.000   1.809   0.000   0.000   0.094   0.000
 -0.168   0.178   0.000   0.000   1.567   0.000   0.000   0.196
  0.000   0.000   0.261   0.000   0.000   0.048   0.000   0.000
  0.000   0.000   0.000   0.094   0.000   0.000   0.005   0.000
  0.057   0.030   0.000   0.000   0.196   0.000   0.000   0.028


------------------------ aborting loop because EDIFF is reached ----------------------------------------


    CHARGE:  cpu time      0.0526: real time      0.0529
    FORLOC:  cpu time      0.0584: real time      0.0586
    FORNL :  cpu time      0.0103: real time      0.0103
    STRESS:  cpu time      0.0985: real time      0.0989
    FORHAR:  cpu time      0.1792: real time      0.1797
    MIXING:  cpu time      0.0321: real time      0.0322
    OFIELD:  cpu time      0.0001: real time      0.0001

  FORCE on cell =-STRESS in cart. coord.  units (eV):
  Direction    XX          YY          ZZ          XY          YZ          ZX
  --------------------------------------------------------------------------------------
  Alpha Z     0.44833     0.44833     0.44833
  Ewald      11.60337    66.75957   -55.30786     0.00000    -0.00000     0.00000
  Hartree   140.52862   150.12319   128.26308    -0.00000    -0.00000    -0.00000
  E(xc)     -36.10676   -35.90573   -36.39970    -0.00000     0.00000     0.00000
  Local    -241.26460  -290.72966  -182.52016     0.00000     0.00000     0.00000
  n-local   -30.94984   -30.14678   -30.80289    -0.00000     0.00000     0.00000
  augment     6.75026     5.77670     8.16498     0.00000    -0.00000     0.00000
  Kinetic   148.96486   133.59730   168.21481     0.00000    -0.00000    -0.00002
  Fock        0.00000     0.00000     0.00000     0.00000     0.00000     0.00000
  -------------------------------------------------------------------------------------
  Total      -0.02577    -0.07708     0.06059     0.00000     0.00000     0.00000
  in kB      -0.08255    -0.24693     0.19409     0.00000     0.00000     0.00000
  external pressure =       -0.05 kB  Pullay stress =        0.00 kB


 VOLUME and BASIS-vectors are now :
 -----------------------------------------------------------------------------
  energy-cutoff  :     1000.00
  volume of cell :      500.13
      direct lattice vectors                 reciprocal lattice vectors
     7.937700000  0.000000000  0.000000000     0.125981078  0.000000000  0.000000000
     0.000000000  7.937700000  0.000000000     0.000000000  0.125981078  0.000000000
     0.000000000  0.000000000  7.937700000     0.000000000  0.000000000  0.125981078

  length of vectors
     7.937700000  7.937700000  7.937700000     0.125981078  0.125981078  0.125981078


 FORCES acting on ions
    electron-ion (+dipol)            ewald-force                    non-local-force                 convergence-correction
 -----------------------------------------------------------------------------------------------
   0.618E+02 -.701E-15 -.330E-15   -.111E+03 0.000E+00 0.188E-16   0.488E+02 0.476E-27 0.234E-20   0.294E-01 -.155E-13 -.183E-13
   -.505E+02 0.709E+02 -.231E-07   0.553E+02 -.775E+02 0.147E-16   -.483E+01 0.673E+01 0.533E-22   0.800E-02 -.625E-02 -.899E-15
   -.505E+02 -.709E+02 -.437E-08   0.553E+02 0.775E+02 0.127E-16   -.483E+01 -.673E+01 0.963E-22   0.800E-02 0.625E-02 0.226E-15
 -----------------------------------------------------------------------------------------------
   -.392E+02 0.227E-12 -.275E-07   -.711E-14 0.000E+00 0.461E-16   0.391E+02 0.000E+00 0.249E-20   0.454E-01 -.166E-13 -.189E-13
 
 
 POSITION                                       TOTAL-FORCE (eV/Angst)
 -----------------------------------------------------------------------------------
      0.00000      0.00000      0.00000         0.040554      0.000000     -0.000000
      0.59444      7.16734      0.00000        -0.020277      0.078383     -0.000000
      0.59444      0.77036      0.00000        -0.020277     -0.078383      0.000000
 -----------------------------------------------------------------------------------
    total drift:                               -0.012669      0.000000     -0.000000


--------------------------------------------------------------------------------------------------------



  FREE ENERGIE OF THE ION-ELECTRON SYSTEM (eV)
  ---------------------------------------------------
  free  energy   TOTEN  =       -14.23890170 eV

  energy  without entropy=      -14.23890170  energy(sigma->0) =      -14.23890170
 
 d Force = 0.2994680E-01[ 0.374E-02, 0.562E-01]  d Energy = 0.3073845E-01-0.792E-03
 d Force =-0.4475875E+01[-0.459E+01,-0.437E+01]  d Ewald  =-0.4474543E+01-0.133E-02


--------------------------------------------------------------------------------------------------------


    POTLOK:  cpu time      0.6696: real time      0.6718


--------------------------------------------------------------------------------------------------------


 Quasi-Newton relaxation of ions (Broydens 2nd method)
  g(Force)  = 0.632E-03   g(Stress)= 0.000E+00

 retain information from N=  1 steps
 eigenvalues of (default step * inverse Hessian matrix)
  average eigenvalue of G=   0.4603
 eigenvalue spectrum of G is  0.4603


--------------------------------------------------------------------------------------------------------


    WAVPRE:  cpu time      0.1588: real time      0.1602
    FEWALD:  cpu time      0.0002: real time      0.0002
    ORTHCH:  cpu time      0.0034: real time      0.0035
     LOOP+:  cpu time      4.4124: real time      4.4435


--------------------------------------- Iteration      4(   1)  ---------------------------------------


    POTLOK:  cpu time      0.6147: real time      0.6170
    SETDIJ:  cpu time      0.0021: real time      0.0022
     EDDAV:  cpu time      0.1945: real time      0.1952
       DOS:  cpu time      0.0001: real time      0.0001
    CHARGE:  cpu time      0.0505: real time      0.0506
    MIXING:  cpu time      0.0202: real time      0.0203
    --------------------------------------------
      LOOP:  cpu time      0.8822: real time      0.8854

 eigenvalue-minimisations  :    32
 total energy-change (2. order) :-0.1553958E-03  (-0.3220221E-03)
 number of electron       7.9999996 magnetization 
 augmentation part        0.6913390 magnetization 

 Broyden mixing:
  rms(total) = 0.29946E-02    rms(broyden)= 0.29946E-02
  rms(prec ) = 0.40221E-02
  weight for this iteration     100.00

 Free energy of the ion-electron system (eV)
  ---------------------------------------------------
  alpha Z        PSCENC =         0.44832783
  Ewald energy   TEWEN  =        23.36895188
  -Hartree energ DENC   =      -419.02317491
  -exchange      EXHF   =         0.00000000
  -V(xc)+E(xc)   XCENC  =        34.08169309
  PAW double counting   =       324.78569764     -326.92059020
  entropy T*S    EENTRO =        -0.00000000
  eigenvalues    EBANDS =      -108.33317310
  atomic energy  EATOM  =       457.35320486
  Solvation  Ediel_sol  =         0.00000000
  ---------------------------------------------------
  free energy    TOTEN  =       -14.23906291 eV

  energy without entropy =      -14.23906291  energy(sigma->0) =      -14.23906291


--------------------------------------------------------------------------------------------------------




--------------------------------------- Iteration      4(   2)  ---------------------------------------


    POTLOK:  cpu time      0.5975: real time      0.5995
    SETDIJ:  cpu time      0.0021: real time      0.0021
     EDDAV:  cpu time      0.1376: real time      0.1381
       DOS:  cpu time      0.0001: real time      0.0001
    --------------------------------------------
      LOOP:  cpu time      0.7373: real time      0.7397

 eigenvalue-minimisations  :    24
 total energy-change (2. order) : 0.7639739E-05  (-0.9928991E-05)
 number of electron       7.9999996 magnetization 
 augmentation part        0.6913390 magnetization 

 Free energy of the ion-electron system (eV)
  ---------------------------------------------------
  alpha Z        PSCENC =         0.44832783
  Ewald energy   TEWEN  =        23.36895188
  -Hartree energ DENC   =      -419.08445993
  -exchange      EXHF   =         0.00000000
  -V(xc)+E(xc)   XCENC  =        34.08511869
  PAW double counting   =       325.02495092     -327.16078094
  entropy T*S    EENTRO =        -0.00000000
  eigenvalues    EBANDS =      -108.27436859
  atomic energy  EATOM  =       457.35320486
  Solvation  Ediel_sol  =         0.00000000
  ---------------------------------------------------
  free energy    TOTEN  =       -14.23905528 eV

  energy without entropy =      -14.23905528  energy(sigma->0) =      -14.23905528


--------------------------------------------------------------------------------------------------------




 average (electrostatic) potential at core
  the test charge radii are     0.7215  0.5201
  (the norm of the test charge is              1.0000)
       1 -80.3889       2 -44.5362       3 -44.5362
 
 
 
 E-fermi :  -6.5533     XC(G=0):  -1.0261     alpha+bet : -0.2602

 Fermi energy:        -6.5532739111

 k-point     1 :       0.0000    0.0000    0.0000
  band No.  band energies     occupation 
      1     -25.1158      2.00000
      2     -12.9213      2.00000
      3      -9.0832      2.00000
      4      -7.0169      2.00000
      5      -1.0762      0.00000
      6       1.1218      0.00000
      7       1.2367      0.00000
      8       1.7515      0.00000


--------------------------------------------------------------------------------------------------------


 soft charge-density along one line, spin component           1
         0         1         2         3         4         5         6         7         8         9
 total charge-density along one line
 
 pseudopotential strength for first ion, spin component:           1
 13.777  -0.523   0.000  -0.000  -0.121  -0.000   0.000   0.006
 -0.523   0.119  -0.000   0.000   0.015   0.000  -0.000  -0.002
  0.000  -0.000 -10.549   0.000  -0.000   0.288  -0.000   0.000
 -0.000   0.000   0.000 -10.310  -0.000  -0.000   0.248   0.000
 -0.121   0.015  -0.000  -0.000 -10.452   0.000   0.000   0.272
 -0.000   0.000   0.288  -0.000   0.000   0.128   0.000  -0.000
  0.000  -0.000  -0.000   0.248   0.000   0.000   0.140  -0.000
  0.006  -0.002   0.000   0.000   0.272  -0.000  -0.000   0.133
 total augmentation occupancy for first ion, spin component:           1
  1.846   0.155   0.000   0.000  -0.168   0.000   0.000   0.058
  0.155   0.037   0.000   0.000   0.179   0.000   0.000   0.030
  0.000   0.000   1.409   0.000   0.000   0.261   0.000   0.000
  0.000   0.000   0.000   1.810   0.000   0.000   0.093   0.000
 -0.168   0.179   0.000   0.000   1.569   0.000   0.000   0.197
  0.000   0.000   0.261   0.000   0.000   0.048   0.000   0.000
  0.000   0.000   0.000   0.093   0.000   0.000   0.005   0.000
  0.058   0.030   0.000   0.000   0.197   0.000   0.000   0.028


------------------------ aborting loop because EDIFF is reached ----------------------------------------


    CHARGE:  cpu time      0.0519: real time      0.0521
    FORLOC:  cpu time      0.0571: real time      0.0572
    FORNL :  cpu time      0.0111: real time      0.0113
    STRESS:  cpu time      0.0993: real time      0.1000
    FORHAR:  cpu time      0.1974: real time      0.1995
    MIXING:  cpu time      0.0308: real time      0.0309
    OFIELD:  cpu time      0.0000: real time      0.0000

  FORCE on cell =-STRESS in cart. coord.  units (eV):
  Direction    XX          YY          ZZ          XY          YZ          ZX
  --------------------------------------------------------------------------------------
  Alpha Z     0.44833     0.44833     0.44833
  Ewald      11.96238    66.71301   -55.30648    -0.00000     0.00000    -0.00000
  Hartree   140.63636   150.12410   128.32521    -0.00000    -0.00000    -0.00000
  E(xc)     -36.12009   -35.92197   -36.41451     0.00000     0.00000     0.00000
  Local    -241.65374  -290.67050  -182.63133     0.00000     0.00000    -0.00000
  n-local   -30.98793   -30.17654   -30.81933    -0.00000     0.00000     0.00001
  augment     6.74556     5.77658     8.16417    -0.00000     0.00000     0.00000
  Kinetic   148.95537   133.71099   168.25592     0.00000     0.00000    -0.00003
  Fock        0.00000     0.00000     0.00000     0.00000     0.00000     0.00000
  -------------------------------------------------------------------------------------
  Total      -0.01376     0.00399     0.02197     0.00000     0.00000     0.00000
  in kB      -0.04408     0.01280     0.07039     0.00000     0.00000     0.00000
  external pressure =        0.01 kB  Pullay stress =        0.00 kB


 VOLUME and BASIS-vectors are now :
 -----------------------------------------------------------------------------
  energy-cutoff  :     1000.00
  volume of cell :      500.13
      direct lattice vectors                 reciprocal lattice vectors
     7.937700000  0.000000000  0.000000000     0.125981078  0.000000000  0.000000000
     0.000000000  7.937700000  0.000000000     0.000000000  0.125981078  0.000000000
     0.000000000  0.000000000  7.937700000     0.000000000  0.000000000  0.125981078

  length of vectors
     7.937700000  7.937700000  7.937700000     0.125981078  0.125981078  0.125981078


 FORCES acting on ions
    electron-ion (+dipol)            ewald-force                    non-local-force                 convergence-correction
 -----------------------------------------------------------------------------------------------
   0.623E+02 -.598E-15 -.714E-16   -.111E+03 0.142E-13 0.244E-16   0.490E+02 0.465E-26 0.126E-20   -.312E-01 -.620E-13 0.163E-12
   -.507E+02 0.710E+02 -.295E-07   0.556E+02 -.777E+02 0.108E-16   -.487E+01 0.676E+01 -.187E-21   0.799E-03 -.211E-02 0.166E-13
   -.507E+02 -.710E+02 0.186E-08   0.556E+02 0.777E+02 0.109E-16   -.487E+01 -.676E+01 0.172E-21   0.799E-03 0.211E-02 0.168E-13
 -----------------------------------------------------------------------------------------------
   -.392E+02 0.128E-12 -.277E-07   -.711E-14 0.000E+00 0.461E-16   0.392E+02 0.888E-15 0.124E-20   -.296E-01 -.657E-13 0.196E-12
 
 
 POSITION                                       TOTAL-FORCE (eV/Angst)
 -----------------------------------------------------------------------------------
      0.00000      0.00000      0.00000        -0.028995      0.000000      0.000000
      0.59458      7.16946      0.00000         0.014497     -0.001133     -0.000000
      0.59458      0.76824      0.00000         0.014497      0.001133      0.000000
 -----------------------------------------------------------------------------------
    total drift:                               -0.000676      0.000000     -0.000000


--------------------------------------------------------------------------------------------------------



  FREE ENERGIE OF THE ION-ELECTRON SYSTEM (eV)
  ---------------------------------------------------
  free  energy   TOTEN  =       -14.23905528 eV

  energy  without entropy=      -14.23905528  energy(sigma->0) =      -14.23905528
 
 d Force = 0.1629053E-03[-0.823E-06, 0.327E-03]  d Energy = 0.1535734E-03 0.933E-05
 d Force =-0.3138286E+00[-0.314E+00,-0.313E+00]  d Ewald  =-0.3138286E+00-0.304E-07


--------------------------------------------------------------------------------------------------------


    POTLOK:  cpu time      0.6653: real time      0.6674


--------------------------------------------------------------------------------------------------------


 Quasi-Newton relaxation of ions (Broydens 2nd method)
  g(Force)  = 0.204E-04   g(Stress)= 0.000E+00

 retain information from N=  2 steps
 eigenvalues of (default step * inverse Hessian matrix)
  average eigenvalue of G=  21.8222
 eigenvalue spectrum of G is  0.4619 43.1826


--------------------------------------------------------------------------------------------------------


  
 reached required accuracy - stopping structural energy minimisation
 writing wavefunctions
     LOOP+:  cpu time      2.7409: real time      2.7545
    4ORBIT:  cpu time      0.0000: real time      0.0000

 total amount of memory used by VASP MPI-rank0   237228. kBytes
=======================================================================

   base      :      30000. kBytes
   nonl-proj :       3152. kBytes
   fftplans  :      72476. kBytes
   grid      :     129302. kBytes
   one-center:          4. kBytes
   wavefun   :       2294. kBytes
 
  
  
 General timing and accounting informations for this job:
 ========================================================
  
                  Total CPU time used (sec):       28.585
                            User time (sec):       24.736
                          System time (sec):        3.848
                         Elapsed time (sec):       29.661
  
                   Maximum memory used (kb):      508568.
                   Average memory used (kb):          N/A
  
                          Minor page faults:       896923
                          Major page faults:           14
                 Voluntary context switches:         1090
