 ----------------------------------------------------
    OOO  PPPP  EEEEE N   N M   M PPPP
   O   O P   P E     NN  N MM MM P   P
   O   O PPPP  EEEEE N N N M M M PPPP   -- VERSION
   O   O P     E     N  NN M   M P
    OOO  P     EEEEE N   N M   M P
 ----------------------------------------------------
 running    1 mpi-ranks, with    1 threads/rank
 distrk:  each k-point on    1 cores,    1 groups
 distr:  one band on    1 cores,    1 groups
 vasp.6.3.2 27Jun22 (build Oct 19 2022 15:35:57) gamma-only                     
  
 POSCAR found :  2 types and       3 ions
 scaLAPACK will be used
 LDA part: xc-table for Pade appr. of Perdew
 POSCAR, INCAR and KPOINTS ok, starting setup
 FFT: planning ... GRIDC
 FFT: planning ... GRID_SOFT
 FFT: planning ... GRID
 WAVECAR not read
 entering main loop
       N       E                     dE             d eps       ncg     rms          rms(c)
DAV:   1     0.761344781942E+02    0.76134E+02   -0.26237E+03    16   0.869E+02
DAV:   2     0.337444211082E+01   -0.72760E+02   -0.72752E+02    32   0.111E+02
DAV:   3    -0.157672810444E+02   -0.19142E+02   -0.19142E+02    16   0.963E+01
DAV:   4    -0.163697183477E+02   -0.60244E+00   -0.60244E+00    32   0.191E+01
DAV:   5    -0.163698844813E+02   -0.16613E-03   -0.16613E-03    16   0.301E-01    0.799E+00
DAV:   6    -0.144049331621E+02    0.19650E+01   -0.98072E+00    16   0.227E+01    0.306E+00
DAV:   7    -0.142922166067E+02    0.11272E+00   -0.14534E-01    24   0.302E+00    0.191E+00
DAV:   8    -0.142025415719E+02    0.89675E-01   -0.72544E-02    24   0.275E+00    0.214E-01
DAV:   9    -0.142062486311E+02   -0.37071E-02   -0.42802E-03    24   0.419E-01    0.138E-01
DAV:  10    -0.142149203993E+02   -0.86718E-02   -0.40355E-03    16   0.549E-01    0.648E-02
DAV:  11    -0.142222957630E+02   -0.73754E-02   -0.48619E-03    16   0.387E-01    0.943E-02
DAV:  12    -0.142231294560E+02   -0.83369E-03   -0.11794E-03    32   0.230E-01    0.201E-02
DAV:  13    -0.142243379766E+02   -0.12085E-02   -0.21434E-04    24   0.102E-01    0.143E-02
DAV:  14    -0.142244080000E+02   -0.70023E-04   -0.13926E-05    32   0.318E-02
   1 F= -.14224408E+02 E0= -.14224408E+02  d E =-.142244E+02
 BRION: g(F)=  0.743E-01 g(S)=  0.000E+00
 bond charge predicted
       N       E                     dE             d eps       ncg     rms          rms(c)
DAV:   1    -0.142208714174E+02    0.34666E-02   -0.15806E+00    16   0.113E+01    0.825E-01
DAV:   2    -0.142087816699E+02    0.12090E-01   -0.78093E-02    32   0.210E+00    0.303E-01
DAV:   3    -0.142082557831E+02    0.52589E-03   -0.11651E-03    24   0.343E-01    0.155E-01
DAV:   4    -0.142081632521E+02    0.92531E-04   -0.58453E-04    24   0.260E-01
   2 F= -.14208163E+02 E0= -.14208163E+02  d E =0.162447E-01
 BRION: g(F)=  0.131E+00 g(S)=  0.000E+00 retain N=  1 mean eig= 0.43
 eig:   0.430
 bond charge predicted
       N       E                     dE             d eps       ncg     rms          rms(c)
DAV:   1    -0.142425658105E+02   -0.34310E-01   -0.51490E-01    16   0.644E+00    0.438E-01
DAV:   2    -0.142390909168E+02    0.34749E-02   -0.20650E-02    24   0.112E+00    0.175E-01
DAV:   3    -0.142389075190E+02    0.18340E-03   -0.84127E-04    16   0.258E-01    0.840E-02
DAV:   4    -0.142389017016E+02    0.58174E-05   -0.23083E-04    16   0.155E-01
   3 F= -.14238902E+02 E0= -.14238902E+02  d E =-.307384E-01
 BRION: g(F)=  0.632E-03 g(S)=  0.000E+00 retain N=  1 mean eig= 0.46
 eig:   0.460
 bond charge predicted
       N       E                     dE             d eps       ncg     rms          rms(c)
DAV:   1    -0.142390629148E+02   -0.15540E-03   -0.32202E-03    32   0.558E-01    0.299E-02
DAV:   2    -0.142390552751E+02    0.76397E-05   -0.99290E-05    24   0.821E-02
   4 F= -.14239055E+02 E0= -.14239055E+02  d E =-.153573E-03
 BRION: g(F)=  0.204E-04 g(S)=  0.000E+00 retain N=  2 mean eig=21.82
 eig:   0.462 43.183
 reached required accuracy - stopping structural energy minimisation
 writing wavefunctions
