unknown system                          
           1
     7.937700    0.000000    0.000000
     0.000000    7.937700    0.000000
     0.000000    0.000000    7.937700
   O    H 
     1     2
Direct configuration=     1
   0.00000000  0.00000000  0.00000000
   0.07333333  0.90466667  0.00000000
   0.07333333  0.09533333  0.00000000
Direct configuration=     2
   0.00000000  0.00000000  0.00000000
   0.07647871  0.90035790  0.00000000
   0.07647871  0.09964210  0.00000000
Direct configuration=     3
   0.00000000  0.00000000  0.00000000
   0.07488829  0.90294876  0.00000000
   0.07488829  0.09705124  0.00000000
Direct configuration=     4
   0.00000000  0.00000000  0.00000000
   0.07490558  0.90321572  0.00000000
   0.07490558  0.09678428  0.00000000
