unknown system                          
  0.529180000000000     
    15.000000    0.000000    0.000000
     0.000000   15.000000    0.000000
     0.000000    0.000000   15.000000
   O    H 
     1     2
Direct
  0.000000  0.000000  0.000000
  0.073333  0.904667  0.000000
  0.073333  0.095333  0.000000
 
   56   56   56
  3334.3      2939.7      2349.9      1732.5      1169.6      701.92      358.51      169.43      86.531      47.600    
  29.113      22.702      15.364      3.9442     -1.1382      2.8479      4.8028     -.15054     -2.9682      1.1036    
  3.6437     -.51901     -3.5455     0.28122      3.6606     0.16524     -3.5789     -.46488      3.5929     0.82413    
 -3.5829     -1.1766      3.6143      1.6217     -3.5507     -1.9909      3.5956      2.5403     -3.3589     -2.5318    
  4.2363      4.2979     -2.6560     -2.2130      8.5599      15.455      15.201      25.021      57.407      123.05    
  279.84      625.65      1213.6      2023.1      2832.1      3325.1      3100.9      2780.6      2272.1      1713.7    
  1178.9      715.71      368.75      175.73      89.625      49.145      29.770      22.514      14.973      4.0371    
 -.84199      2.7603      4.5382     -.64361E-01 -2.7120      1.0189      3.3703     -.46509     -3.2735     0.24811    
  3.3795     0.16236     -3.3061     -.43984      3.3214     0.77695     -3.3071     -1.1001      3.3373      1.5124    
 -3.2787     -1.8546      3.3215      2.3660     -3.1000     -2.3478      3.9491      4.0506     -2.4049     -2.0084    
  8.1312      14.875      15.018      24.443      54.726      115.28      258.98      577.63      1116.0      1852.8    
  2593.8      3060.1      2525.0      2379.0      2062.7      1647.3      1185.5      739.25      391.71      191.92    
  98.174      53.419      31.447      21.896      13.856      4.2316     -.87826E-01  2.5218      3.8394     0.15488    
 -2.0443     0.79934      2.6562     -.32638     -2.5615     0.16766      2.6495     0.15391     -2.5945     -.37303    
  2.6103     0.64700     -2.5901     -.89666      2.6162      1.2245     -2.5679     -1.4936      2.6062      1.9059    
 -2.4204     -1.8564      3.1981      3.3924     -1.7458     -1.4665      6.9576      13.222      14.393      22.846    
  47.742      95.469      206.17      455.01      874.07      1435.5      2011.9      2411.6      1847.8      1874.1    
  1758.2      1509.3      1150.9      745.66      411.27      210.41      109.40      58.986      33.246      20.711    
  12.184      4.3533     0.81404      2.2037      2.9452     0.41193     -1.2145     0.52635      1.7603     -.15693    
 -1.6643     0.80808E-01  1.7416     0.13990     -1.7025     -.28364      1.7141     0.46823     -1.6965     -.63119    
  1.7161     0.85486     -1.6751     -1.0253      1.7100      1.3128     -1.5634     -1.2123      2.2546      2.5339    
 -.91394     -.76667      5.3453      10.767      13.165      20.518      38.886      71.519      143.53      307.35    
  591.53      962.12      1354.1      1670.9      1232.9      1357.5      1385.2      1290.8      1057.3      730.33    
  421.79      221.52      117.95      63.017      33.797      18.821      10.240      4.2889      1.5759      1.9063    
  2.1194     0.60615     -.49140     0.28238     0.95766     -.10982E-01 -.85459     0.20415E-01 0.93403     0.11955    
 -.90133     -.19120     0.90773     0.28868     -.89886     -.37624     0.91221     0.50704     -.87239     -.57950    
 0.90855     0.75168     -.79669     -.59926      1.4061      1.7137     -.16631     -.10937      3.6928      7.9466    
  11.232      17.669      30.399      50.501      90.732      181.31      345.42      568.40      810.82      1041.5    
  741.68      882.61      979.42      999.54      894.17      663.35      401.87      216.45      117.43      62.178    
  31.847      16.212      8.3304      4.0562      2.0682      1.7072      1.5218     0.67601     -.34773E-01 0.11777    
 0.41334     0.79037E-01 -.30046     -.45298E-02 0.38582     0.92165E-01 -.35442     -.11051     0.36051     0.14998    
 -.35605     -.18344     0.36585     0.24919     -.32495     -.24726     0.36672     0.33660     -.28573     -.15718    
 0.81744      1.0982     0.33968     0.36620      2.3333      5.2611      8.7175      14.372      23.256      35.285    
  55.587      98.184      176.77      291.62      430.85      583.65      391.36      501.55      605.72      678.97    
  656.42      515.08      328.65      186.83      104.19      54.708      27.077      13.100      6.6726      3.7443    
  2.3038      1.6046      1.1528     0.61727     0.15208     0.42187E-01 0.14116     0.10879     -.22614E-01 -.36617E-02
 0.10628     0.60053E-01 -.79072E-01 -.51693E-01 0.88679E-01 0.67337E-01 -.81293E-01 -.69889E-01 0.89566E-01 0.99681E-01
 -.50563E-01 -.58688E-01 0.97586E-01 0.10436     -.41410E-01 0.64882E-01 0.48605     0.72855     0.58935     0.61933    
  1.4121      3.1112      6.0104      10.748      17.292      25.031      35.406      53.651      85.941      135.18    
  201.76      287.24      191.91      261.08      333.13      394.62      400.66      330.66      226.86      140.16    
  80.419      41.987      20.485      9.9176      5.3408      3.4113      2.3308      1.5141     0.90774     0.47414    
 0.16988     0.32405E-01 0.54034E-01 0.98274E-01 0.63369E-01 0.69283E-02 0.88061E-02 0.30247E-01 0.88660E-02 -.18957E-01
 0.73927E-03 0.28605E-01 0.88497E-02 -.21404E-01 -.26213E-02 0.36071E-01 0.35494E-01 0.12496E-01 0.12196E-01 0.21271E-01
 0.29748E-01 0.10887     0.30917     0.53693     0.65576     0.69088     0.88591      1.6701      3.6163      7.1510    
  12.071      17.673      23.910      32.316      45.327      65.015      93.568      134.75      94.847      132.61    
  173.00      205.46      213.20      186.18      139.19      91.760      53.285      27.921      13.873      7.1533    
  4.3039      3.0436      2.1647      1.3369     0.68781     0.31184     0.12960     0.51255E-01 0.50330E-01 0.78778E-01
 0.65086E-01 0.13423E-01 -.84585E-02 0.10975E-01 0.16005E-01 -.74716E-02 -.12153E-01 0.12313E-01 0.17635E-01 -.80948E-02
 -.14349E-01 0.17556E-01 0.38971E-01 0.22661E-01 0.63662E-02 0.16172E-01 0.31119E-01 0.64801E-01 0.19049     0.41691    
 0.61372     0.65422     0.62538     0.87823      1.9043      4.1117      7.5453      11.781      16.307      21.173    
  27.193      35.567      47.859      66.618      47.323      66.199      87.924      105.31      110.34      99.695    
  77.348      51.785      30.476      16.434      8.7569      5.1100      3.4820      2.5943      1.8134      1.0441    
 0.46767     0.18335     0.94984E-01 0.72145E-01 0.69131E-01 0.71814E-01 0.51266E-01 0.10261E-01 -.85727E-02 0.49177E-02
 0.11184E-01 -.54664E-02 -.12047E-01 0.49043E-02 0.12359E-01 -.38601E-02 -.10197E-01 0.10527E-01 0.27130E-01 0.21339E-01
 0.18820E-01 0.28220E-01 0.20606E-01 0.13359E-01 0.95735E-01 0.29914     0.50467     0.56826     0.51170     0.54128    
 0.94459      2.0313      4.0480      6.9655      10.380      13.816      17.185      20.954      26.097      34.218    
  25.907      34.429      44.277      52.057      54.002      48.609      37.848      25.751      15.776      9.2289    
  5.6037      3.7708      2.7789      2.0457      1.3362     0.69880     0.27911     0.10957     0.83884E-01 0.90355E-01
 0.89683E-01 0.75287E-01 0.40766E-01 0.21611E-02 -.85688E-02 0.69423E-02 0.12721E-01 -.26958E-02 -.10746E-01 0.25941E-02
 0.12381E-01 0.20877E-02 -.72797E-02 0.30345E-02 0.19291E-01 0.26802E-01 0.33053E-01 0.36425E-01 0.16885E-01 -.83980E-02
 0.32983E-01 0.17913     0.35835     0.45933     0.45964     0.44543     0.54877     0.94055      1.8467      3.4418    
  5.6757      8.2632      10.891      13.456      16.236      20.018      17.741      20.909      23.889      25.602    
  24.983      21.846      17.121      12.240      8.2841      5.5859      3.9183      2.8737      2.1110      1.4440    
 0.84863     0.40001     0.15591     0.83714E-01 0.92582E-01 0.10876     0.10312     0.72724E-01 0.29294E-01 -.23784E-02
 -.48156E-02 0.96221E-02 0.13961E-01 0.30414E-02 -.38147E-02 0.37984E-02 0.12296E-01 0.80757E-02 -.16066E-02 -.12220E-02
 0.12627E-01 0.31926E-01 0.46694E-01 0.46042E-01 0.23984E-01 -.24661E-02 0.80583E-02 0.85892E-01 0.21341     0.33474    
 0.40439     0.42448     0.44481     0.54504     0.82660      1.4213      2.4933      4.1852      6.4998      9.2220    
  12.040      14.826      10.369      11.544      12.162      12.065      11.193      9.7196      7.9957      6.3526    
  4.9618      3.8377      2.9179      2.1346      1.4533     0.88432     0.46308     0.20977     0.10295     0.88874E-01
 0.10871     0.11838     0.98094E-01 0.55553E-01 0.15972E-01 -.11907E-02 0.19962E-02 0.98142E-02 0.11510E-01 0.79685E-02
 0.48062E-02 0.54013E-02 0.88780E-02 0.10417E-01 0.59817E-02 0.48542E-03 0.64892E-02 0.28300E-01 0.51334E-01 0.55541E-01
 0.37861E-01 0.15098E-01 0.87891E-02 0.35464E-01 0.10418     0.20629     0.30912     0.38031     0.42336     0.47121    
 0.54681     0.67521     0.96676      1.6454      2.9086      4.7233      6.7926      8.7513      1.9686      2.8499    
  3.7551      4.4298      4.7091      4.6115      4.2812      3.8489      3.3505      2.7642      2.0984      1.4289    
 0.85988     0.45923     0.22954     0.12780     0.10149     0.10803     0.11563     0.10385     0.70460E-01 0.31627E-01
 0.65784E-02 0.56245E-03 0.45702E-02 0.86003E-02 0.97797E-02 0.89937E-02 0.68771E-02 0.52089E-02 0.65047E-02 0.91495E-02
 0.79372E-02 0.32242E-02 0.45008E-02 0.18933E-01 0.39450E-01 0.50729E-01 0.45816E-01 0.31364E-01 0.18784E-01 0.18339E-01
 0.41441E-01 0.97744E-01 0.18413     0.28308     0.37722     0.45987     0.52650     0.56565     0.57117     0.56157    
 0.57771     0.66662     0.88293      1.2984     -.58575     0.25430E-01 0.88828      1.7174      2.2968      2.5832    
  2.6532      2.5704      2.3232      1.8910      1.3368     0.80357     0.41675     0.20788     0.12924     0.11624    
 0.12337     0.12300     0.10212     0.66401E-01 0.33188E-01 0.13083E-01 0.35162E-02 -.41618E-03 0.12147E-02 0.69087E-02
 0.99810E-02 0.69007E-02 0.29416E-02 0.38044E-02 0.68016E-02 0.62281E-02 0.30043E-02 0.24333E-02 0.57324E-02 0.10632E-01
 0.17744E-01 0.28579E-01 0.38337E-01 0.38804E-01 0.29434E-01 0.19099E-01 0.17107E-01 0.31019E-01 0.73565E-01 0.15791    
 0.27684     0.39569     0.47815     0.51308     0.50025     0.41105     0.19075     -.17095     -.56377     -.76953    
  2.4866      2.5506      2.4230      2.1823      1.9448      1.8038      1.7562      1.6928      1.4899      1.1247    
 0.70062     0.35756     0.16607     0.10413     0.10982     0.13185     0.13929     0.11714     0.71579E-01 0.27806E-01
 0.64793E-02 0.40181E-02 0.36405E-02 -.44216E-03 -.96230E-03 0.45030E-02 0.78230E-02 0.44218E-02 0.83291E-03 0.28220E-02
 0.56386E-02 0.32082E-02 -.68332E-03 0.82940E-03 0.52218E-02 0.50743E-02 0.23295E-02 0.71064E-02 0.21530E-01 0.34728E-01
 0.36930E-01 0.29815E-01 0.19372E-01 0.95740E-02 0.12219E-01 0.52456E-01 0.14497     0.26185     0.34331     0.35971    
 0.36404     0.46949     0.76209      1.2275      1.7558      2.2090      2.9859      2.9037      2.4951      1.9483    
  1.4702      1.1760      1.0354     0.92428     0.74437     0.50058     0.27182     0.12674     0.75923E-01 0.87200E-01
 0.11970     0.14012     0.12855     0.86765E-01 0.37750E-01 0.63704E-02 -.13330E-02 0.26070E-02 0.54368E-02 0.44715E-02
 0.29301E-02 0.26153E-02 0.30040E-02 0.34489E-02 0.35631E-02 0.30015E-02 0.21503E-02 0.19502E-02 0.25491E-02 0.31072E-02
 0.29267E-02 0.19317E-02 0.85706E-03 0.22537E-02 0.97346E-02 0.23501E-01 0.37281E-01 0.42403E-01 0.34833E-01 0.17419E-01
 -.55711E-03 -.17291E-02 0.34036E-01 0.10773     0.18460     0.22292     0.24175     0.35255     0.69159      1.2950    
  2.0328      2.6676     -.79457     -.59166     -.24882     0.10113     0.34470     0.43970     0.41161     0.31679    
 0.20916     0.12409     0.75486E-01 0.61602E-01 0.73921E-01 0.10029     0.12260     0.12134     0.90573E-01 0.46094E-01
 0.12077E-01 -.40534E-03 0.17802E-02 0.72119E-02 0.10723E-01 0.11349E-01 0.83782E-02 0.35762E-02 0.16905E-02 0.41482E-02
 0.61788E-02 0.41940E-02 0.18978E-02 0.40931E-02 0.81557E-02 0.80509E-02 0.44175E-02 0.33519E-02 0.60322E-02 0.76398E-02
 0.78469E-02 0.13925E-01 0.29012E-01 0.43786E-01 0.45720E-01 0.32578E-01 0.11984E-01 -.68864E-02 -.13348E-01 0.81702E-02
 0.67192E-01 0.14572     0.19288     0.14892     -.18249E-01 -.28757     -.58054     -.78274     -2.0448     -1.8144    
 -1.2752     -.66068     -.19226     0.37816E-01 0.81395E-01 0.52592E-01 0.32627E-01 0.38837E-01 0.56651E-01 0.75999E-01
 0.94935E-01 0.10712     0.10222     0.77946E-01 0.44211E-01 0.14752E-01 -.16487E-02 -.33589E-02 0.49531E-02 0.14439E-01
 0.17628E-01 0.14105E-01 0.91467E-02 0.66877E-02 0.60289E-02 0.53699E-02 0.50244E-02 0.57897E-02 0.70038E-02 0.79965E-02
 0.92735E-02 0.10708E-01 0.10764E-01 0.91430E-02 0.78951E-02 0.81909E-02 0.88092E-02 0.10194E-01 0.16437E-01 0.28834E-01
 0.40033E-01 0.40289E-01 0.28646E-01 0.12669E-01 -.80836E-03 -.58166E-02 0.10484E-01 0.56719E-01 0.10020     0.46419E-01
 -.21570     -.71727     -1.3422     -1.8593      1.1070     0.99654     0.75788     0.48180     0.25202     0.11343    
 0.65632E-01 0.74317E-01 0.95233E-01 0.10241     0.99061E-01 0.98990E-01 0.10129     0.91280E-01 0.63680E-01 0.31944E-01
 0.10938E-01 0.10880E-02 -.38516E-02 -.32209E-02 0.59224E-02 0.16957E-01 0.18899E-01 0.11921E-01 0.66796E-02 0.78598E-02
 0.89855E-02 0.57125E-02 0.34670E-02 0.67919E-02 0.10571E-01 0.91868E-02 0.68378E-02 0.98779E-02 0.14578E-01 0.12728E-01
 0.59922E-02 0.36268E-02 0.70439E-02 0.84017E-02 0.61332E-02 0.96944E-02 0.23472E-01 0.36754E-01 0.38296E-01 0.32348E-01
 0.28774E-01 0.22741E-01 -.22752E-03 -.34727E-01 -.40125E-01 0.37969E-01 0.22883     0.51127     0.81386      1.0392    
  2.3094      2.1035      1.5801     0.96331     0.46715     0.19050     0.10139     0.10295     0.11553     0.11311    
 0.10409     0.95632E-01 0.81522E-01 0.55893E-01 0.25822E-01 0.48833E-02 -.16038E-02 0.23059E-03 0.27434E-02 0.45724E-02
 0.75855E-02 0.10874E-01 0.11474E-01 0.90864E-02 0.64669E-02 0.54157E-02 0.51905E-02 0.50198E-02 0.54819E-02 0.65877E-02
 0.69440E-02 0.62277E-02 0.64016E-02 0.85578E-02 0.10311E-01 0.89009E-02 0.57241E-02 0.45324E-02 0.54187E-02 0.45465E-02
 0.12989E-02 0.17496E-02 0.11270E-01 0.25921E-01 0.36166E-01 0.38720E-01 0.38161E-01 0.33385E-01 0.10354E-01 -.36351E-01
 -.65207E-01 0.22241E-01 0.33011     0.87824      1.5438      2.0949     -.77330     -.67689     -.48116     -.26164    
 -.87889E-01 0.66245E-02 0.30987E-01 0.22697E-01 0.20594E-01 0.38655E-01 0.61029E-01 0.64612E-01 0.45543E-01 0.20245E-01
 0.42727E-02 -.91737E-03 -.30134E-03 0.45177E-02 0.11797E-01 0.14827E-01 0.95124E-02 0.24367E-02 0.26734E-02 0.81020E-02
 0.88703E-02 0.33438E-02 0.48138E-03 0.47044E-02 0.86516E-02 0.58400E-02 0.15513E-02 0.35370E-02 0.86493E-02 0.82731E-02
 0.31664E-02 0.23544E-02 0.79675E-02 0.11526E-01 0.75166E-02 0.15591E-02 0.90938E-03 0.46204E-02 0.87780E-02 0.14646E-01
 0.23796E-01 0.30015E-01 0.26111E-01 0.17879E-01 0.20707E-01 0.36920E-01 0.40755E-01 -.92087E-02 -.14043     -.34285    
 -.56467     -.72986     -2.2713     -2.0531     -1.5150     -.88445     -.38029     -.10440     -.21706E-01 -.25705E-01
 -.27977E-01 -.47675E-02 0.20796E-01 0.26028E-01 0.14311E-01 0.27998E-02 -.26437E-03 0.13236E-02 0.41714E-02 0.97338E-02
 0.16316E-01 0.16690E-01 0.85181E-02 0.42290E-03 0.12931E-02 0.78425E-02 0.99643E-02 0.57969E-02 0.31003E-02 0.58144E-02
 0.82345E-02 0.56674E-02 0.27938E-02 0.53679E-02 0.95785E-02 0.78176E-02 0.19113E-02 0.14197E-02 0.86346E-02 0.14199E-01
 0.10835E-01 0.38432E-02 0.24323E-02 0.63730E-02 0.86953E-02 0.81862E-02 0.99915E-02 0.13894E-01 0.12700E-01 0.82697E-02
 0.19662E-01 0.57884E-01 0.83299E-01 -.42825E-02 -.31109     -.85744     -1.5199     -2.0655     0.58052     0.51959    
 0.38868     0.24258     0.12703     0.59882E-01 0.34457E-01 0.31844E-01 0.32155E-01 0.24380E-01 0.11283E-01 0.25805E-02
 0.18834E-02 0.34370E-02 0.22031E-02 0.13459E-02 0.57981E-02 0.12842E-01 0.14989E-01 0.10463E-01 0.50967E-02 0.39022E-02
 0.58510E-02 0.79055E-02 0.94442E-02 0.10574E-01 0.99573E-02 0.72652E-02 0.51687E-02 0.60170E-02 0.83619E-02 0.92785E-02
 0.84188E-02 0.72920E-02 0.63369E-02 0.55845E-02 0.64844E-02 0.95179E-02 0.11332E-01 0.85183E-02 0.36600E-02 0.27158E-02
 0.59785E-02 0.72158E-02 0.39072E-02 0.24244E-02 0.81244E-02 0.14577E-01 0.10107E-01 -.43401E-02 -.82096E-02 0.26680E-01
 0.11773     0.25917     0.41805     0.54156      2.3162      2.1019      1.5667     0.94100     0.44111     0.16264    
 0.69809E-01 0.63097E-01 0.60685E-01 0.37735E-01 0.11458E-01 0.12549E-02 0.49413E-02 0.76387E-02 0.34057E-02 0.33459E-04
 0.42703E-02 0.11183E-01 0.12085E-01 0.70605E-02 0.34545E-02 0.48386E-02 0.79206E-02 0.95938E-02 0.10733E-01 0.11897E-01
 0.10890E-01 0.72190E-02 0.46445E-02 0.60316E-02 0.89231E-02 0.95893E-02 0.85991E-02 0.85394E-02 0.87354E-02 0.69983E-02
 0.49992E-02 0.63256E-02 0.94460E-02 0.86519E-02 0.34214E-02 0.70525E-03 0.44475E-02 0.85291E-02 0.61551E-02 0.21398E-02
 0.63938E-02 0.13986E-01 0.24398E-02 -.37647E-01 -.62932E-01 0.26866E-01 0.33539     0.88313      1.5498      2.1032    
 -.31494     -.27895     -.20314     -.11896     -.52636E-01 -.15107E-01 -.37785E-02 -.75704E-02 -.12323E-01 -.87082E-02
 0.16855E-02 0.10063E-01 0.10927E-01 0.67349E-02 0.26720E-02 0.11011E-02 0.23157E-02 0.62063E-02 0.10320E-01 0.10115E-01
 0.50613E-02 0.15422E-02 0.50836E-02 0.11864E-01 0.13398E-01 0.85598E-02 0.46354E-02 0.58725E-02 0.78162E-02 0.59352E-02
 0.35698E-02 0.59374E-02 0.10621E-01 0.10825E-01 0.62091E-02 0.35102E-02 0.60767E-02 0.91818E-02 0.78228E-02 0.38868E-02
 0.23135E-02 0.40952E-02 0.67677E-02 0.88447E-02 0.97555E-02 0.76840E-02 0.21975E-02 -.19018E-02 0.15662E-02 0.10865E-01
 0.13481E-01 -.63066E-02 -.57438E-01 -.13635     -.22501     -.29393     -2.2860     -2.0719     -1.5388     -.91885    
 -.42477     -.14823     -.55819E-01 -.53497E-01 -.58422E-01 -.37991E-01 -.56028E-02 0.13319E-01 0.12437E-01 0.51550E-02
 0.28083E-02 0.33875E-02 0.24428E-02 0.30435E-02 0.79929E-02 0.11216E-01 0.67804E-02 0.76740E-03 0.31760E-02 0.11183E-01
 0.12502E-01 0.50355E-02 0.47091E-03 0.52369E-02 0.10343E-01 0.69592E-02 0.12554E-02 0.35297E-02 0.10439E-01 0.10618E-01
 0.39134E-02 0.15292E-02 0.71667E-02 0.11146E-01 0.67801E-02 0.94610E-03 0.20334E-02 0.69375E-02 0.83779E-02 0.75602E-02
 0.91513E-02 0.88351E-02 -.68632E-03 -.10551E-01 0.32161E-02 0.46492E-01 0.71832E-01 -.19283E-01 -.32489     -.86449    
 -1.5233     -2.0733     0.11340     0.10327     0.80644E-01 0.49438E-01 0.22079E-01 0.10414E-01 0.11726E-01 0.12289E-01
 0.56499E-02 -.59077E-03 0.15717E-02 0.83280E-02 0.10725E-01 0.74984E-02 0.43974E-02 0.41857E-02 0.44076E-02 0.37964E-02
 0.42233E-02 0.59028E-02 0.63597E-02 0.52976E-02 0.54832E-02 0.72916E-02 0.72813E-02 0.44349E-02 0.30440E-02 0.60491E-02
 0.96784E-02 0.90240E-02 0.56905E-02 0.48355E-02 0.67990E-02 0.73354E-02 0.53387E-02 0.44531E-02 0.62818E-02 0.74584E-02
 0.54839E-02 0.29132E-02 0.30170E-02 0.49319E-02 0.60359E-02 0.60026E-02 0.54706E-02 0.36867E-02 0.90712E-03 0.21902E-03
 0.28933E-02 0.49072E-02 0.37285E-02 0.65449E-02 0.24351E-01 0.56927E-01 0.90115E-01 0.10994      2.2968      2.0858    
  1.5576     0.93307     0.43074     0.15588     0.72282E-01 0.69400E-01 0.61172E-01 0.32274E-01 0.84866E-02 0.45869E-02
 0.96224E-02 0.96393E-02 0.53740E-02 0.40393E-02 0.55914E-02 0.49712E-02 0.21654E-02 0.20105E-02 0.56247E-02 0.84979E-02
 0.75117E-02 0.49346E-02 0.40874E-02 0.48923E-02 0.57232E-02 0.67204E-02 0.86326E-02 0.10141E-01 0.91547E-02 0.62483E-02
 0.44341E-02 0.52568E-02 0.69030E-02 0.69009E-02 0.53714E-02 0.43916E-02 0.47399E-02 0.48809E-02 0.37161E-02 0.28190E-02
 0.39946E-02 0.53653E-02 0.34326E-02 0.17923E-03 0.26971E-02 0.95092E-02 0.20612E-02 -.32905E-01 -.58766E-01 0.26179E-01
 0.33291     0.88231      1.5463      2.0903     0.11340     0.10327     0.80644E-01 0.49438E-01 0.22079E-01 0.10414E-01
 0.11726E-01 0.12289E-01 0.56499E-02 -.59077E-03 0.15717E-02 0.83280E-02 0.10725E-01 0.74984E-02 0.43974E-02 0.41857E-02
 0.44076E-02 0.37964E-02 0.42233E-02 0.59028E-02 0.63597E-02 0.52976E-02 0.54832E-02 0.72916E-02 0.72813E-02 0.44349E-02
 0.30440E-02 0.60491E-02 0.96784E-02 0.90240E-02 0.56905E-02 0.48355E-02 0.67990E-02 0.73354E-02 0.53387E-02 0.44531E-02
 0.62818E-02 0.74584E-02 0.54839E-02 0.29132E-02 0.30170E-02 0.49319E-02 0.60359E-02 0.60026E-02 0.54706E-02 0.36867E-02
 0.90712E-03 0.21902E-03 0.28933E-02 0.49072E-02 0.37285E-02 0.65449E-02 0.24351E-01 0.56927E-01 0.90115E-01 0.10994    
 -2.2860     -2.0719     -1.5388     -.91885     -.42477     -.14823     -.55819E-01 -.53497E-01 -.58422E-01 -.37991E-01
 -.56028E-02 0.13319E-01 0.12437E-01 0.51550E-02 0.28083E-02 0.33875E-02 0.24428E-02 0.30435E-02 0.79929E-02 0.11216E-01
 0.67804E-02 0.76740E-03 0.31760E-02 0.11183E-01 0.12502E-01 0.50355E-02 0.47091E-03 0.52369E-02 0.10343E-01 0.69592E-02
 0.12554E-02 0.35297E-02 0.10439E-01 0.10618E-01 0.39134E-02 0.15292E-02 0.71667E-02 0.11146E-01 0.67801E-02 0.94610E-03
 0.20334E-02 0.69375E-02 0.83779E-02 0.75602E-02 0.91513E-02 0.88351E-02 -.68632E-03 -.10551E-01 0.32161E-02 0.46492E-01
 0.71832E-01 -.19283E-01 -.32489     -.86449     -1.5233     -2.0733     -.31494     -.27895     -.20314     -.11896    
 -.52636E-01 -.15107E-01 -.37785E-02 -.75704E-02 -.12323E-01 -.87082E-02 0.16855E-02 0.10063E-01 0.10927E-01 0.67349E-02
 0.26720E-02 0.11011E-02 0.23157E-02 0.62063E-02 0.10320E-01 0.10115E-01 0.50613E-02 0.15422E-02 0.50836E-02 0.11864E-01
 0.13398E-01 0.85598E-02 0.46354E-02 0.58725E-02 0.78162E-02 0.59352E-02 0.35698E-02 0.59374E-02 0.10621E-01 0.10825E-01
 0.62091E-02 0.35102E-02 0.60767E-02 0.91818E-02 0.78228E-02 0.38868E-02 0.23135E-02 0.40952E-02 0.67677E-02 0.88447E-02
 0.97555E-02 0.76840E-02 0.21975E-02 -.19018E-02 0.15662E-02 0.10865E-01 0.13481E-01 -.63066E-02 -.57438E-01 -.13635    
 -.22501     -.29393      2.3162      2.1019      1.5667     0.94100     0.44111     0.16264     0.69809E-01 0.63097E-01
 0.60685E-01 0.37735E-01 0.11458E-01 0.12549E-02 0.49413E-02 0.76387E-02 0.34057E-02 0.33459E-04 0.42703E-02 0.11183E-01
 0.12085E-01 0.70605E-02 0.34545E-02 0.48386E-02 0.79206E-02 0.95938E-02 0.10733E-01 0.11897E-01 0.10890E-01 0.72190E-02
 0.46445E-02 0.60316E-02 0.89231E-02 0.95893E-02 0.85991E-02 0.85394E-02 0.87354E-02 0.69983E-02 0.49992E-02 0.63256E-02
 0.94460E-02 0.86519E-02 0.34214E-02 0.70525E-03 0.44475E-02 0.85291E-02 0.61551E-02 0.21398E-02 0.63938E-02 0.13986E-01
 0.24398E-02 -.37647E-01 -.62932E-01 0.26866E-01 0.33539     0.88313      1.5498      2.1032     0.58052     0.51959    
 0.38868     0.24258     0.12703     0.59882E-01 0.34457E-01 0.31844E-01 0.32155E-01 0.24380E-01 0.11283E-01 0.25805E-02
 0.18834E-02 0.34370E-02 0.22031E-02 0.13459E-02 0.57981E-02 0.12842E-01 0.14989E-01 0.10463E-01 0.50967E-02 0.39022E-02
 0.58510E-02 0.79055E-02 0.94442E-02 0.10574E-01 0.99573E-02 0.72652E-02 0.51687E-02 0.60170E-02 0.83619E-02 0.92785E-02
 0.84188E-02 0.72920E-02 0.63369E-02 0.55845E-02 0.64844E-02 0.95179E-02 0.11332E-01 0.85183E-02 0.36600E-02 0.27158E-02
 0.59785E-02 0.72158E-02 0.39072E-02 0.24244E-02 0.81244E-02 0.14577E-01 0.10107E-01 -.43401E-02 -.82096E-02 0.26680E-01
 0.11773     0.25917     0.41805     0.54156     -2.2713     -2.0531     -1.5150     -.88445     -.38029     -.10440    
 -.21706E-01 -.25705E-01 -.27977E-01 -.47675E-02 0.20796E-01 0.26028E-01 0.14311E-01 0.27998E-02 -.26437E-03 0.13236E-02
 0.41714E-02 0.97338E-02 0.16316E-01 0.16690E-01 0.85181E-02 0.42290E-03 0.12931E-02 0.78425E-02 0.99643E-02 0.57969E-02
 0.31003E-02 0.58144E-02 0.82345E-02 0.56674E-02 0.27938E-02 0.53679E-02 0.95785E-02 0.78176E-02 0.19113E-02 0.14197E-02
 0.86346E-02 0.14199E-01 0.10835E-01 0.38432E-02 0.24323E-02 0.63730E-02 0.86953E-02 0.81862E-02 0.99915E-02 0.13894E-01
 0.12700E-01 0.82697E-02 0.19662E-01 0.57884E-01 0.83299E-01 -.42825E-02 -.31109     -.85744     -1.5199     -2.0655    
 -.77330     -.67689     -.48116     -.26164     -.87889E-01 0.66245E-02 0.30987E-01 0.22697E-01 0.20594E-01 0.38655E-01
 0.61029E-01 0.64612E-01 0.45543E-01 0.20245E-01 0.42727E-02 -.91737E-03 -.30134E-03 0.45177E-02 0.11797E-01 0.14827E-01
 0.95124E-02 0.24367E-02 0.26734E-02 0.81020E-02 0.88703E-02 0.33438E-02 0.48138E-03 0.47044E-02 0.86516E-02 0.58400E-02
 0.15513E-02 0.35370E-02 0.86493E-02 0.82731E-02 0.31664E-02 0.23544E-02 0.79675E-02 0.11526E-01 0.75166E-02 0.15591E-02
 0.90938E-03 0.46204E-02 0.87780E-02 0.14646E-01 0.23796E-01 0.30015E-01 0.26111E-01 0.17879E-01 0.20707E-01 0.36920E-01
 0.40755E-01 -.92087E-02 -.14043     -.34285     -.56467     -.72986      2.3094      2.1035      1.5801     0.96331    
 0.46715     0.19050     0.10139     0.10295     0.11553     0.11311     0.10409     0.95632E-01 0.81522E-01 0.55893E-01
 0.25822E-01 0.48833E-02 -.16038E-02 0.23059E-03 0.27434E-02 0.45724E-02 0.75855E-02 0.10874E-01 0.11474E-01 0.90864E-02
 0.64669E-02 0.54157E-02 0.51905E-02 0.50198E-02 0.54819E-02 0.65877E-02 0.69440E-02 0.62277E-02 0.64016E-02 0.85578E-02
 0.10311E-01 0.89009E-02 0.57241E-02 0.45324E-02 0.54187E-02 0.45465E-02 0.12989E-02 0.17496E-02 0.11270E-01 0.25921E-01
 0.36166E-01 0.38720E-01 0.38161E-01 0.33385E-01 0.10354E-01 -.36351E-01 -.65207E-01 0.22241E-01 0.33011     0.87824    
  1.5438      2.0949      1.1070     0.99654     0.75788     0.48180     0.25202     0.11343     0.65632E-01 0.74317E-01
 0.95233E-01 0.10241     0.99061E-01 0.98990E-01 0.10129     0.91280E-01 0.63680E-01 0.31944E-01 0.10938E-01 0.10880E-02
 -.38516E-02 -.32209E-02 0.59224E-02 0.16957E-01 0.18899E-01 0.11921E-01 0.66796E-02 0.78598E-02 0.89855E-02 0.57125E-02
 0.34670E-02 0.67919E-02 0.10571E-01 0.91868E-02 0.68378E-02 0.98779E-02 0.14578E-01 0.12728E-01 0.59922E-02 0.36268E-02
 0.70439E-02 0.84017E-02 0.61332E-02 0.96944E-02 0.23472E-01 0.36754E-01 0.38296E-01 0.32348E-01 0.28774E-01 0.22741E-01
 -.22752E-03 -.34727E-01 -.40125E-01 0.37969E-01 0.22883     0.51127     0.81386      1.0392     -2.0448     -1.8144    
 -1.2752     -.66068     -.19226     0.37816E-01 0.81395E-01 0.52592E-01 0.32627E-01 0.38837E-01 0.56651E-01 0.75999E-01
 0.94935E-01 0.10712     0.10222     0.77946E-01 0.44211E-01 0.14752E-01 -.16487E-02 -.33589E-02 0.49531E-02 0.14439E-01
 0.17628E-01 0.14105E-01 0.91467E-02 0.66877E-02 0.60289E-02 0.53699E-02 0.50244E-02 0.57897E-02 0.70038E-02 0.79965E-02
 0.92735E-02 0.10708E-01 0.10764E-01 0.91430E-02 0.78951E-02 0.81909E-02 0.88092E-02 0.10194E-01 0.16437E-01 0.28834E-01
 0.40033E-01 0.40289E-01 0.28646E-01 0.12669E-01 -.80836E-03 -.58166E-02 0.10484E-01 0.56719E-01 0.10020     0.46419E-01
 -.21570     -.71727     -1.3422     -1.8593     -.79457     -.59166     -.24882     0.10113     0.34470     0.43970    
 0.41161     0.31679     0.20916     0.12409     0.75486E-01 0.61602E-01 0.73921E-01 0.10029     0.12260     0.12134    
 0.90573E-01 0.46094E-01 0.12077E-01 -.40534E-03 0.17802E-02 0.72119E-02 0.10723E-01 0.11349E-01 0.83782E-02 0.35762E-02
 0.16905E-02 0.41482E-02 0.61788E-02 0.41940E-02 0.18978E-02 0.40931E-02 0.81557E-02 0.80509E-02 0.44175E-02 0.33519E-02
 0.60322E-02 0.76398E-02 0.78469E-02 0.13925E-01 0.29012E-01 0.43786E-01 0.45720E-01 0.32578E-01 0.11984E-01 -.68864E-02
 -.13348E-01 0.81702E-02 0.67192E-01 0.14572     0.19288     0.14892     -.18249E-01 -.28757     -.58054     -.78274    
  2.9859      2.9037      2.4951      1.9483      1.4702      1.1760      1.0354     0.92428     0.74437     0.50058    
 0.27182     0.12674     0.75923E-01 0.87200E-01 0.11970     0.14012     0.12855     0.86765E-01 0.37750E-01 0.63704E-02
 -.13330E-02 0.26070E-02 0.54368E-02 0.44715E-02 0.29301E-02 0.26153E-02 0.30040E-02 0.34489E-02 0.35631E-02 0.30015E-02
 0.21503E-02 0.19502E-02 0.25491E-02 0.31072E-02 0.29267E-02 0.19317E-02 0.85706E-03 0.22537E-02 0.97346E-02 0.23501E-01
 0.37281E-01 0.42403E-01 0.34833E-01 0.17419E-01 -.55711E-03 -.17291E-02 0.34036E-01 0.10773     0.18460     0.22292    
 0.24175     0.35255     0.69159      1.2950      2.0328      2.6676      2.4866      2.5506      2.4230      2.1823    
  1.9448      1.8038      1.7562      1.6928      1.4899      1.1247     0.70062     0.35756     0.16607     0.10413    
 0.10982     0.13185     0.13929     0.11714     0.71579E-01 0.27806E-01 0.64793E-02 0.40181E-02 0.36405E-02 -.44216E-03
 -.96230E-03 0.45030E-02 0.78230E-02 0.44218E-02 0.83291E-03 0.28220E-02 0.56386E-02 0.32082E-02 -.68332E-03 0.82940E-03
 0.52218E-02 0.50743E-02 0.23295E-02 0.71064E-02 0.21530E-01 0.34728E-01 0.36930E-01 0.29815E-01 0.19372E-01 0.95740E-02
 0.12219E-01 0.52456E-01 0.14497     0.26185     0.34331     0.35971     0.36404     0.46949     0.76209      1.2275    
  1.7558      2.2090     -.58575     0.25430E-01 0.88828      1.7174      2.2968      2.5832      2.6532      2.5704    
  2.3232      1.8910      1.3368     0.80357     0.41675     0.20788     0.12924     0.11624     0.12337     0.12300    
 0.10212     0.66401E-01 0.33188E-01 0.13083E-01 0.35162E-02 -.41618E-03 0.12147E-02 0.69087E-02 0.99810E-02 0.69007E-02
 0.29416E-02 0.38044E-02 0.68016E-02 0.62281E-02 0.30043E-02 0.24333E-02 0.57324E-02 0.10632E-01 0.17744E-01 0.28579E-01
 0.38337E-01 0.38804E-01 0.29434E-01 0.19099E-01 0.17107E-01 0.31019E-01 0.73565E-01 0.15791     0.27684     0.39569    
 0.47815     0.51308     0.50025     0.41105     0.19075     -.17095     -.56377     -.76953      1.9686      2.8499    
  3.7551      4.4298      4.7091      4.6115      4.2812      3.8489      3.3505      2.7642      2.0984      1.4289    
 0.85988     0.45923     0.22954     0.12780     0.10149     0.10803     0.11563     0.10385     0.70460E-01 0.31627E-01
 0.65784E-02 0.56245E-03 0.45702E-02 0.86003E-02 0.97797E-02 0.89937E-02 0.68771E-02 0.52089E-02 0.65047E-02 0.91495E-02
 0.79372E-02 0.32242E-02 0.45008E-02 0.18933E-01 0.39450E-01 0.50729E-01 0.45816E-01 0.31364E-01 0.18784E-01 0.18339E-01