unknown system                          
  0.529180000000000     
    15.000000    0.000000    0.000000
     0.000000   15.000000    0.000000
     0.000000    0.000000   15.000000
   O    H 
     1     2
Direct
  0.000000  0.000000  0.000000
  0.074657  0.906515  0.000000
  0.074657  0.093485  0.000000
 
   56   56   56
 0.33387104790E+04 0.29435917005E+04 0.23548475896E+04 0.17419161243E+04 0.11830613084E+04
 0.71517456913E+03 0.36787171638E+03 0.17444334710E+03 0.88884031612E+02 0.48802819591E+02
 0.29682187360E+02 0.22875151574E+02 0.15510398048E+02 0.41983299142E+01 -.98474705206E+00
 0.28020338976E+01 0.47562059467E+01 -.67607102623E-01 -.28994156292E+01 0.10442365740E+01
 0.35869928817E+01 -.45157173587E+00 -.34660983922E+01 0.24115892646E+00 0.35888284352E+01
 0.19772936152E+00 -.35043404045E+01 -.47998108077E+00 0.35320419500E+01 0.84280574360E+00
 -.35184078750E+01 -.11896470882E+01 0.35502706325E+01 0.16340057285E+01 -.34780093443E+01
 -.19915054780E+01 0.35217593423E+01 0.25295657919E+01 -.32898966172E+01 -.25190422787E+01
 0.41597851850E+01 0.42621793860E+01 -.26117725115E+01 -.22257841556E+01 0.84246731803E+01
 0.15303582897E+02 0.15065367870E+02 0.24758541333E+02 0.56933070104E+02 0.12232496291E+03
 0.27846683536E+03 0.62303906858E+03 0.12099127406E+04 0.20196233323E+04 0.28311568624E+04
 0.33278754559E+04 0.31064273764E+04 0.27861696583E+04 0.22792996517E+04 0.17255906862E+04
 0.11947345115E+04 0.73092260136E+03 0.37954176622E+03 0.18162219531E+03 0.92437156180E+02
 0.50548210984E+02 0.30414864882E+02 0.22710893952E+02 0.15117935984E+02 0.42809391111E+01
 -.69189357428E+00 0.27187476363E+01 0.44937692162E+01 0.15521894621E-01 -.26443425547E+01
 0.96340828162E+00 0.33161857002E+01 -.40039272329E+00 -.31969632683E+01 0.20978671221E+00
 0.33106503071E+01 0.19415832081E+00 -.32335977465E+01 -.45420757888E+00 0.32621781921E+01
 0.79449993133E+00 -.32444164478E+01 -.11116201205E+01 0.32759299124E+01 0.15239590860E+01
 -.32087607073E+01 -.18549910176E+01 0.32506219030E+01 0.23560527782E+01 -.30328296585E+01
 -.23354474600E+01 0.38742252511E+01 0.40148722283E+01 -.23619585135E+01 -.20197342052E+01
 0.79995601820E+01 0.14724171518E+02 0.14881221915E+02 0.24186684801E+02 0.54271273706E+02
 0.11460182020E+03 0.25772536550E+03 0.57526721712E+03 0.11127333084E+04 0.18499792008E+04
 0.25937652920E+04 0.30637486398E+04 0.25310119868E+04 0.23858553532E+04 0.20726062700E+04
 0.16627401296E+04 0.12053409301E+04 0.75821193050E+03 0.40540310297E+03 0.19977953904E+03
 0.10207461823E+03 0.55305071227E+02 0.32272946565E+02 0.22148740378E+02 0.13994850331E+02
 0.44472517641E+01 0.51438794188E-01 0.24911094521E+01 0.38006532265E+01 0.22555986988E+00
 -.19806355714E+01 0.75450280011E+00 0.26094536246E+01 -.26948118775E+00 -.24933346677E+01
 0.13430616143E+00 0.25887472119E+01 0.18339866524E+00 -.25279885759E+01 -.38523545308E+00
 0.25558652857E+01 0.66130393688E+00 -.25327243646E+01 -.90425062960E+00 0.25622415999E+01
 0.12337946603E+01 -.25059821724E+01 -.14933034297E+01 0.25435044654E+01 0.18978572695E+01
 -.23589857644E+01 -.18451190808E+01 0.31281387289E+01 0.33568920636E+01 -.17069443528E+01
 -.14738386417E+01 0.68371998199E+01 0.13075937089E+02 0.14257592377E+02 0.22608604258E+02
 0.47339010355E+02 0.94905839451E+02 0.20521515243E+03 0.45326276581E+03 0.87176491517E+03
 0.14339334877E+04 0.20127877299E+04 0.24157232908E+04 0.18498337636E+04 0.18770895571E+04
 0.17651779329E+04 0.15242425388E+04 0.11734948138E+04 0.76917505179E+03 0.42802426338E+03
 0.21973582320E+03 0.11429068410E+03 0.61334938975E+02 0.34237365192E+02 0.21015713356E+02
 0.12314341664E+02 0.45297379934E+01 0.93469770957E+00 0.21865428703E+01 0.29140806256E+01
 0.46783347490E+00 -.11587952881E+01 0.49633312316E+00 0.17246853233E+01 -.11169988300E+00
 -.16089624931E+01 0.54986546357E-01 0.16930527139E+01 0.16518775214E+00 -.16456856658E+01
 -.29236133732E+00 0.16676282118E+01 0.47778885656E+00 -.16478214115E+01 -.63364118678E+00
 0.16729025010E+01 0.86060122962E+00 -.16253277686E+01 -.10240068655E+01 0.16595404561E+01
 0.13066786562E+01 -.15116430630E+01 -.12029078160E+01 0.21928855590E+01 0.24991860132E+01
 -.88199000696E+00 -.76840878530E+00 0.52442947885E+01 0.10633789515E+02 0.13036511923E+02
 0.20310878448E+02 0.38554485566E+02 0.71099036626E+02 0.14290827391E+03 0.30627264642E+03
 0.59013329286E+03 0.96116297088E+03 0.13543892504E+04 0.16725429777E+04 0.12287997281E+04
 0.13526931639E+04 0.13835132245E+04 0.12982775048E+04 0.10762995131E+04 0.75434861823E+03
 0.44036212007E+03 0.23122094221E+03 0.12296091789E+03 0.65467325265E+02 0.34814715516E+02
 0.19138662780E+02 0.10357359956E+02 0.44226586159E+01 0.16724313133E+01 0.19023744344E+01
 0.20969018744E+01 0.64406874168E+00 -.44728390569E+00 0.26801015436E+00 0.93475755108E+00
 0.20502925551E-01 -.81441167153E+00 0.36254312725E-02 0.89982634973E+00 0.13897950603E+00
 -.85711806651E+00 -.19548336807E+00 0.87196072792E+00 0.29317050006E+00 -.86141605463E+00
 -.37369331710E+00 0.88149310809E+00 0.50854819363E+00 -.83709893333E+00 -.57698973723E+00
 0.87252169200E+00 0.74717881817E+00 -.75758909296E+00 -.59229977828E+00 0.13556654185E+01
 0.16812147543E+01 -.14345846122E+00 -.10607908128E+00 0.36168164734E+01 0.78353265390E+01
 0.11119971267E+02 0.17500016309E+02 0.30140880600E+02 0.50203523464E+02 0.90364739782E+02
 0.18072091297E+03 0.34460647875E+03 0.56755839315E+03 0.80973596296E+03 0.10393179625E+04
 0.73357065406E+03 0.87138608398E+03 0.96738590213E+03 0.99334409896E+03 0.89953783775E+03
 0.67732457276E+03 0.41534605378E+03 0.22416878841E+03 0.12142851729E+03 0.64216567324E+02
 0.32699907607E+02 0.16489673212E+02 0.84295285504E+01 0.41498757211E+01 0.21399474434E+01
 0.17149186602E+01 0.15087997720E+01 0.69678897178E+00 -.37605855590E-02 0.11669430762E+00
 0.40233069807E+00 0.97166263063E-01 -.27520043255E+00 -.12259537866E-01 0.36594782994E+00
 0.10510130748E+00 -.32371403007E+00 -.11020324310E+00 0.33700948070E+00 0.15041960780E+00
 -.33052996229E+00 -.17712689803E+00 0.34746791199E+00 0.24706619703E+00 -.30405621219E+00
 -.24389899337E+00 0.34500556902E+00 0.33335632805E+00 -.26006683249E+00 -.15250672313E+00
 0.78027430830E+00 0.10698757398E+01 0.35238576212E+00 0.37174010948E+00 0.22829826467E+01
 0.51778078518E+01 0.86287189836E+01 0.14243763743E+02 0.23062305270E+02 0.35071343125E+02
 0.55366663296E+02 0.97865810897E+02 0.17626290153E+03 0.29075815214E+03 0.42894566198E+03
 0.57924232136E+03 0.38287946840E+03 0.48865372740E+03 0.58789750399E+03 0.66106850854E+03
 0.64623793467E+03 0.51445189445E+03 0.33264184665E+03 0.19038785627E+03 0.10648516262E+03
 0.55982109774E+02 0.27634278767E+02 0.13297750261E+02 0.67476759660E+01 0.38043766934E+01
 0.23540515488E+01 0.16213516884E+01 0.11493693237E+01 0.62564712759E+00 0.17130302816E+00
 0.49943538600E-01 0.13947090850E+00 0.11665595996E+00 -.93314785911E-02 -.39032080716E-02
 0.98474265958E-01 0.67282248441E-01 -.60670188154E-01 -.47851495253E-01 0.76753894593E-01
 0.65548411747E-01 -.66543403379E-01 -.61850330347E-01 0.81656419585E-01 0.95736730752E-01
 -.41428174420E-01 -.55207312605E-01 0.87647751782E-01 0.10213529759E+00 -.27594825743E-01
 0.67896214998E-01 0.46243972100E+00 0.70595092446E+00 0.59223111669E+00 0.62332441203E+00
 0.13827998146E+01 0.30554746609E+01 0.59459524609E+01 0.10654759981E+02 0.17149547768E+02
 0.24867488438E+02 0.35250393197E+02 0.53457125442E+02 0.85597511923E+02 0.13444078716E+03
 0.19988033321E+03 0.28278505086E+03 0.18549061554E+03 0.25086176082E+03 0.31792289661E+03
 0.37607451581E+03 0.38536291557E+03 0.32273531368E+03 0.22478146614E+03 0.14039342828E+03
 0.81109737761E+02 0.42498422318E+02 0.20743039253E+02 0.10027374879E+02 0.53893030474E+01
 0.34455486077E+01 0.23639163538E+01 0.15352726997E+01 0.91235059675E+00 0.47646042887E+00
 0.18057735798E+00 0.43996978026E-01 0.58398691276E-01 0.10060190570E+00 0.69143717730E-01
 0.11436097708E-01 0.92593815957E-02 0.33600362494E-01 0.17875593023E-01 -.13455932518E-01
 -.23558644068E-02 0.26408552289E-01 0.15353026984E-01 -.13884234174E-01 -.32388440829E-02
 0.32507777799E-01 0.37191626409E-01 0.15379608814E-01 0.99613253351E-02 0.19810089653E-01
 0.34957692161E-01 0.11087532208E+00 0.29708372194E+00 0.52043794197E+00 0.65052788688E+00
 0.69035514795E+00 0.87028458190E+00 0.16364718039E+01 0.35722168655E+01 0.70860152390E+01
 0.11966621879E+02 0.17542157618E+02 0.23779483824E+02 0.32173380256E+02 0.45093650618E+02
 0.64492866096E+02 0.92230628765E+02 0.13152935744E+03 0.90811985594E+02 0.12585592487E+03
 0.16371793781E+03 0.19400880179E+03 0.20252631653E+03 0.17921786850E+03 0.13594290993E+03
 0.90601911868E+02 0.53048897712E+02 0.27945720466E+02 0.13924535913E+02 0.71920481354E+01
 0.43267281457E+01 0.30585957650E+01 0.21836114269E+01 0.13566594052E+01 0.69700261594E+00
 0.31308298963E+00 0.13539461718E+00 0.62668402121E-01 0.57577843211E-01 0.79828554981E-01
 0.67608818162E-01 0.19775303555E-01 -.38539846433E-02 0.12501886297E-01 0.19314376841E-01
 -.20704100299E-02 -.10031487329E-01 0.11002749751E-01 0.19110095587E-01 -.26567327252E-02
 -.11256875297E-01 0.15818787183E-01 0.37610670115E-01 0.24582344857E-01 0.77599613093E-02
 0.15269426037E-01 0.31442744892E-01 0.66063064297E-01 0.18613431314E+00 0.40566893848E+00
 0.60334283404E+00 0.64833237431E+00 0.61647205409E+00 0.85925135683E+00 0.18751679547E+01
 0.40673723902E+01 0.74730055817E+01 0.11679334270E+02 0.16190703293E+02 0.21046274127E+02
 0.27012946338E+02 0.35209542203E+02 0.47014089830E+02 0.64636711181E+02 0.44951132681E+02
 0.62217700505E+02 0.82369109023E+02 0.98943733515E+02 0.10440392162E+03 0.95226388420E+02
 0.74665797977E+02 0.50514971409E+02 0.29996211730E+02 0.16279781530E+02 0.87136139665E+01
 0.51041608905E+01 0.34829027921E+01 0.25944867459E+01 0.18204102845E+01 0.10580070411E+01
 0.47742801599E+00 0.18571718972E+00 0.98706444952E-01 0.81216565502E-01 0.76641805654E-01
 0.73748875087E-01 0.53306309006E-01 0.16406180421E-01 -.29798410152E-02 0.61735830910E-02
 0.12174806732E-01 -.10525524659E-02 -.78993104178E-02 0.50218395509E-02 0.11889215770E-01
 -.75212743466E-03 -.63425796588E-02 0.10696670403E-01 0.25619383729E-01 0.22332010184E-01
 0.20874276761E-01 0.27717934286E-01 0.19114669389E-01 0.13886999388E-01 0.95008349089E-01
 0.29174657187E+00 0.49272056580E+00 0.55854460055E+00 0.50459045518E+00 0.53037588953E+00
 0.92559992584E+00 0.20020150207E+01 0.40014824032E+01 0.68934745620E+01 0.10282966326E+02
 0.13695065171E+02 0.17020082209E+02 0.20671166634E+02 0.25523058623E+02 0.33004410456E+02
 0.24644316070E+02 0.32372222700E+02 0.41416568170E+02 0.48734991153E+02 0.50814500231E+02
 0.46102411379E+02 0.36238896787E+02 0.24903255547E+02 0.15393093893E+02 0.90668554523E+01
 0.55350197511E+01 0.37417588902E+01 0.27636700133E+01 0.20356126705E+01 0.13346664321E+01
 0.70575633321E+00 0.28662442927E+00 0.11301045883E+00 0.87145487726E-01 0.96689521024E-01
 0.95799154932E-01 0.78250639294E-01 0.43420037418E-01 0.72818251048E-02 -.36400781187E-02
 0.87004943206E-02 0.13625609463E-01 0.64184039692E-03 -.67223884918E-02 0.38911245628E-02
 0.12102188185E-01 0.36672076631E-02 -.43441299151E-02 0.41687521928E-02 0.18663761497E-01
 0.27080156634E-01 0.34158066654E-01 0.35970444098E-01 0.15333717279E-01 -.84941295597E-02
 0.32928005615E-01 0.17422846099E+00 0.34793179092E+00 0.44870804635E+00 0.45216230254E+00
 0.43779490066E+00 0.53632387614E+00 0.92184119906E+00 0.18190453684E+01 0.33971922278E+01
 0.56045922650E+01 0.81594446092E+01 0.10745271754E+02 0.13236857591E+02 0.15862821212E+02
 0.19324184286E+02 0.17234162040E+02 0.20093172428E+02 0.22742533145E+02 0.24243123847E+02
 0.23639531587E+02 0.20739471960E+02 0.16355968970E+02 0.11786122567E+02 0.80399409699E+01
 0.54578193497E+01 0.38496583135E+01 0.28353966495E+01 0.20876780438E+01 0.14296896196E+01
 0.84316449190E+00 0.40189127514E+00 0.16035896113E+00 0.87285851770E-01 0.95847821158E-01
 0.11298700394E+00 0.10741462791E+00 0.76040853312E-01 0.32547292548E-01 0.17567253987E-02
 -.91493286582E-03 0.11959409298E-01 0.15587887563E-01 0.55106212441E-02 -.93467206353E-03
 0.55436077969E-02 0.12975174003E-01 0.91101213994E-02 0.36962584136E-04 -.12796922797E-03
 0.12727012877E-01 0.31738410934E-01 0.46411747254E-01 0.45136722618E-01 0.22822512846E-01
 -.29153283250E-02 0.74638158203E-02 0.82433887085E-01 0.20605853805E+00 0.32588500879E+00
 0.39666297078E+00 0.41725494998E+00 0.43556169287E+00 0.53257017336E+00 0.81021085972E+00
 0.13963517679E+01 0.24494517785E+01 0.41116570717E+01 0.63913565593E+01 0.90773594510E+01
 0.11844495363E+02 0.14524553498E+02 0.10162153731E+02 0.11243544008E+02 0.11750924603E+02
 0.11571684801E+02 0.10686039113E+02 0.92722566627E+01 0.76499951852E+01 0.61114303961E+01
 0.48041940540E+01 0.37380341932E+01 0.28560120352E+01 0.20967653144E+01 0.14307321316E+01
 0.87187514467E+00 0.45785722044E+00 0.20935335030E+00 0.10501405523E+00 0.91773219090E-01
 0.11174780437E+00 0.12139479338E+00 0.10109454032E+00 0.58670509934E-01 0.19322803106E-01
 0.22444488866E-02 0.51315251998E-02 0.12392336367E-01 0.13610399961E-01 0.98307187039E-02
 0.65602447059E-02 0.70003815950E-02 0.10206718957E-01 0.11444205170E-01 0.68138823670E-02
 0.12017986674E-02 0.68765768028E-02 0.27944035772E-01 0.50148404623E-01 0.54092875269E-01
 0.36842857919E-01 0.14472615965E-01 0.76452135333E-02 0.32801357395E-01 0.99673211962E-01
 0.20031236627E+00 0.30218442586E+00 0.37256138279E+00 0.41457261352E+00 0.46117147077E+00
 0.53533708503E+00 0.66039837220E+00 0.94219132843E+00 0.16004866211E+01 0.28349939067E+01
 0.46214805782E+01 0.66682339940E+01 0.85994917065E+01 0.17422261030E+01 0.25786057102E+01
 0.34528802147E+01 0.41223538797E+01 0.44258127140E+01 0.43727758089E+01 0.40925563549E+01
 0.37049085984E+01 0.32432587064E+01 0.26878756654E+01 0.20480352832E+01 0.13989092087E+01
 0.84401234474E+00 0.45179713836E+00 0.22651517656E+00 0.12708201882E+00 0.10230858682E+00
 0.10998669675E+00 0.11813678789E+00 0.10635555908E+00 0.72919237860E-01 0.34309060702E-01
 0.95169087152E-02 0.34774034265E-02 0.72414995762E-02 0.10983916944E-01 0.11796272451E-01
 0.10563567116E-01 0.81844350167E-02 0.65617142987E-02 0.78758581782E-02 0.10209930961E-01
 0.86150104113E-02 0.37801911184E-02 0.49028895926E-02 0.18659082289E-01 0.38274535858E-01
 0.49252966728E-01 0.44726329442E-01 0.30472641313E-01 0.17358670490E-01 0.16108257999E-01
 0.38586296108E-01 0.93976107136E-01 0.17859496039E+00 0.27536429202E+00 0.36794546577E+00
 0.44996823237E+00 0.51636610450E+00 0.55452876990E+00 0.55580528785E+00 0.53424555606E+00
 0.52661830093E+00 0.57983826770E+00 0.75250281460E+00 0.11206229076E+01 -.77372019869E+00
 -.19816674703E+00 0.65207700823E+00 0.14948222606E+01 0.21066541389E+01 0.24305356256E+01
 0.25321682293E+01 0.24728844460E+01 0.22458149108E+01 0.18344127906E+01 0.13011223534E+01
 0.78486746626E+00 0.40862709614E+00 0.20474858537E+00 0.12801051277E+00 0.11588812262E+00
 0.12379287454E+00 0.12431026524E+00 0.10418693098E+00 0.68807532732E-01 0.35531822610E-01
 0.15336225554E-01 0.58787749795E-02 0.20544643457E-02 0.35194605682E-02 0.88486949871E-02
 0.11637659210E-01 0.84392893347E-02 0.43811402805E-02 0.50698214916E-02 0.78718719854E-02
 0.71418090875E-02 0.37764876575E-02 0.30223586800E-02 0.60247553043E-02 0.10472672078E-01
 0.17078266284E-01 0.27576474609E-01 0.37213964657E-01 0.37522539646E-01 0.27752101234E-01
 0.16965572214E-01 0.14684799825E-01 0.28111999469E-01 0.69266670044E-01 0.15127812288E+00
 0.26792834718E+00 0.38567833498E+00 0.46824040927E+00 0.50337214683E+00 0.48898150839E+00
 0.39398445804E+00 0.16015712639E+00 -.22641573011E+00 -.65690634329E+00 -.90981692325E+00
 0.24687341363E+01 0.25226086540E+01 0.23819835802E+01 0.21282889378E+01 0.18791952360E+01
 0.17292013367E+01 0.16775203166E+01 0.16185166964E+01 0.14294496653E+01 0.10840328176E+01
 0.67881091985E+00 0.34848934155E+00 0.16290662165E+00 0.10276947837E+00 0.10898356017E+00
 0.13152153991E+00 0.13964737145E+00 0.11833734283E+00 0.73578405010E-01 0.30206487988E-01
 0.87572458601E-02 0.60413445955E-02 0.56594379747E-02 0.16686438137E-02 0.96998405441E-03
 0.60607976309E-02 0.92231770584E-02 0.59504648908E-02 0.23726190363E-02 0.40114406889E-02
 0.64037454305E-02 0.38273016179E-02 -.34308426820E-04 0.13352336161E-02 0.53542634326E-02
 0.48458122546E-02 0.18767469880E-02 0.64203020276E-02 0.20465357521E-01 0.33177307915E-01
 0.34892388186E-01 0.27370046255E-01 0.16679693869E-01 0.66988602910E-02 0.87384125437E-02
 0.47401340425E-01 0.13761345537E+00 0.25269883631E+00 0.33391681348E+00 0.35115633806E+00
 0.35572543424E+00 0.45981904547E+00 0.75045180628E+00 0.12151091775E+01 0.17438681578E+01
 0.21961793166E+01 0.30223944657E+01 0.29430707366E+01 0.25242446837E+01 0.19564679603E+01
 0.14525723475E+01 0.11356291512E+01 0.98214578513E+00 0.87150193028E+00 0.70337172643E+00
 0.47573465294E+00 0.26042674865E+00 0.12274967004E+00 0.74318010716E-01 0.85743451790E-01
 0.11824359143E+00 0.13925262613E+00 0.12875881623E+00 0.88107861055E-01 0.39832197998E-01
 0.86244153085E-02 0.76522626082E-03 0.45708841989E-02 0.73720054692E-02 0.63263740922E-02
 0.45750206313E-02 0.40473879178E-02 0.43599928991E-02 0.48188328735E-02 0.48515631726E-02
 0.40049651374E-02 0.27684346196E-02 0.23040537316E-02 0.28407671791E-02 0.33597425192E-02
 0.29295642929E-02 0.15109648263E-02 0.11033272052E-03 0.13932020019E-02 0.87113318952E-02
 0.21961801563E-01 0.34957965194E-01 0.39464665180E-01 0.31747794300E-01 0.14496796793E-01
 -.35517718515E-02 -.55810553579E-02 0.28465929853E-01 0.10032587564E+00 0.17637536874E+00
 0.21523593569E+00 0.23488295589E+00 0.34563055753E+00 0.68493134641E+00 0.12925071357E+01
 0.20411437271E+01 0.26912853526E+01 -.86278217423E+00 -.67136835008E+00 -.33168825639E+00
 0.24685750392E-01 0.28149571975E+00 0.39163861493E+00 0.37679004887E+00 0.29226284704E+00
 0.19265435630E+00 0.11394703017E+00 0.69952479212E-01 0.58747361253E-01 0.72011443538E-01
 0.98296445605E-01 0.12048209563E+00 0.11985241263E+00 0.90473618517E-01 0.47363716652E-01
 0.13998628798E-01 0.15112615232E-02 0.35601168328E-02 0.89842427617E-02 0.12476468829E-01
 0.12984051281E-01 0.99145880190E-02 0.50708645439E-02 0.30617695431E-02 0.52916255634E-02
 0.71486998902E-02 0.50624673623E-02 0.25441110628E-02 0.43745410240E-02 0.82048901650E-02
 0.81013988834E-02 0.43701523360E-02 0.28537089081E-02 0.50471274989E-02 0.65545589165E-02
 0.68297906440E-02 0.12512174390E-01 0.26670162253E-01 0.40671244983E-01 0.42525406199E-01
 0.29691063639E-01 0.91092460570E-02 -.10340103593E-01 -.17816835083E-01 0.25098742903E-02
 0.60508242530E-01 0.13854005529E+00 0.18545953611E+00 0.14006115339E+00 -.31774770862E-01
 -.31029720143E+00 -.61674633800E+00 -.83508248629E+00 -.21365621625E+01 -.19228355798E+01
 -.13838717139E+01 -.75206785351E+00 -.25537158303E+00 0.32470691564E-02 0.67056259621E-01
 0.47708843611E-01 0.29512505186E-01 0.34782080478E-01 0.52320483793E-01 0.72536583544E-01
 0.92401691364E-01 0.10487303267E+00 0.10005342618E+00 0.76422190422E-01 0.43936790933E-01
 0.15657567327E-01 -.17581576719E-03 -.18557837343E-02 0.63219906092E-02 0.15712413719E-01
 0.18881603489E-01 0.15446068305E-01 0.10642031232E-01 0.82006449573E-02 0.73034081670E-02
 0.63462471491E-02 0.59053475143E-02 0.66985774193E-02 0.77545450434E-02 0.83657364331E-02
 0.93426205354E-02 0.10710885202E-01 0.10682909917E-01 0.87369234326E-02 0.71142820775E-02
 0.72652159439E-02 0.78118038561E-02 0.87920535401E-02 0.14286470421E-01 0.26065923951E-01
 0.37086199479E-01 0.37346242344E-01 0.25475760668E-01 0.90262506067E-02 -.49212984170E-02
 -.10394227345E-01 0.51544178209E-02 0.50232961512E-01 0.92283948310E-01 0.36444203975E-01
 -.23013630234E+00 -.74159783825E+00 -.13842407175E+01 -.19258175302E+01 0.11351059365E+01
 0.10275852503E+01 0.78681706859E+00 0.50478388775E+00 0.26709213611E+00 0.12054440986E+00
 0.66164334221E-01 0.70307309891E-01 0.88843187732E-01 0.95626925127E-01 0.93307457225E-01
 0.94837685758E-01 0.98454860376E-01 0.89205789099E-01 0.62119780466E-01 0.31053028279E-01
 0.10871456179E-01 0.17288770173E-02 -.28046735646E-02 -.20747067912E-02 0.69234874435E-02
 0.17723988248E-01 0.19611438440E-01 0.12891553406E-01 0.79840597931E-02 0.91999909961E-02
 0.10044740403E-01 0.65352189316E-02 0.43182665328E-02 0.77210171942E-02 0.11330230141E-01
 0.95787209090E-02 0.69350116606E-02 0.98314546640E-02 0.14398755875E-01 0.12361832425E-01
 0.54619625088E-02 0.29375131085E-02 0.60501297869E-02 0.69238034131E-02 0.41789086985E-02
 0.74064182480E-02 0.20883025773E-01 0.33727656178E-01 0.34753071128E-01 0.28416487203E-01
 0.24673690972E-01 0.18532867600E-01 -.48004183965E-02 -.40208560241E-01 -.46896868127E-01
 0.30597459923E-01 0.22341612142E+00 0.51180387135E+00 0.82383856263E+00 0.10594959707E+01
 0.23809793327E+01 0.21876943476E+01 0.16621043364E+01 0.10287617975E+01 0.50799485735E+00
 0.20719121622E+00 0.10094398672E+00 0.94282908475E-01 0.10535965029E+00 0.10455060474E+00
 0.97804486934E-01 0.91348308279E-01 0.78811762861E-01 0.54324170162E-01 0.25057685652E-01
 0.47371045197E-02 -.12552013104E-02 0.90037896042E-03 0.35655637300E-02 0.54437476612E-02
 0.84102311514E-02 0.11546768158E-01 0.12033403378E-01 0.97642215792E-02 0.74190407530E-02
 0.64714009939E-02 0.60482067399E-02 0.56487100945E-02 0.61168008406E-02 0.73173194792E-02
 0.75353622369E-02 0.64511691783E-02 0.63236741605E-02 0.83679970507E-02 0.10015365723E-01
 0.83832954187E-02 0.49842748082E-02 0.36561963433E-02 0.43455473356E-02 0.30987701614E-02
 -.56256709030E-03 -.39766286674E-03 0.88483481100E-02 0.23023577629E-01 0.32654200937E-01
 0.34752703457E-01 0.34018694477E-01 0.29181649604E-01 0.59809716714E-02 -.41102203331E-01
 -.70421549029E-01 0.17384382049E-01 0.32876099402E+00 0.88671882933E+00 0.15700783215E+01
 0.21444540746E+01 -.80932853846E+00 -.71706857177E+00 -.52068227058E+00 -.29579681430E+00
 -.11371536647E+00 -.10433882239E-01 0.20900101363E-01 0.16636761389E-01 0.15867194466E-01
 0.33911230893E-01 0.56385765417E-01 0.60906228616E-01 0.43263971266E-01 0.19179886961E-01
 0.39441883400E-02 -.77372938000E-03 0.19427364164E-03 0.51615358328E-02 0.12407893601E-01
 0.15470319297E-01 0.10342283703E-01 0.33693621378E-02 0.34609907056E-02 0.87241851476E-02
 0.95653762272E-02 0.41978518055E-02 0.12619167707E-02 0.52324248607E-02 0.90748601147E-02
 0.63269186210E-02 0.19382500223E-02 0.35614133036E-02 0.83879017449E-02 0.80049905292E-02
 0.28622114164E-02 0.16681231840E-02 0.67998510182E-02 0.10223660790E-01 0.63425776945E-02
 0.26498075231E-03 -.89720485230E-03 0.23260969781E-02 0.63110262502E-02 0.12037601016E-01
 0.20726815445E-01 0.26316867331E-01 0.22015904587E-01 0.13651377128E-01 0.16345910685E-01
 0.32343917331E-01 0.35954836163E-01 -.14671806553E-01 -.14810685799E+00 -.35535298508E+00
 -.58458215084E+00 -.75837623314E+00 -.23581686345E+01 -.21534832714E+01 -.16138706133E+01
 -.96677634617E+00 -.43707417501E+00 -.13543990278E+00 -.33946765011E-01 -.28519265527E-01
 -.28660213081E-01 -.65579828207E-02 0.17965569844E-01 0.23362505241E-01 0.12538457257E-01
 0.18667670011E-02 -.66440734568E-03 0.12694676777E-02 0.43337714777E-02 0.99475745583E-02
 0.16553203311E-01 0.17156323082E-01 0.93812327856E-02 0.15134780598E-02 0.22639110609E-02
 0.85905584453E-02 0.10689473312E-01 0.66282534010E-02 0.39001236451E-02 0.64368677115E-02
 0.87509534752E-02 0.61644029497E-02 0.31305930507E-02 0.53774960040E-02 0.93865247797E-02
 0.76704960787E-02 0.17131954548E-02 0.77440800964E-03 0.74261922318E-02 0.12826267753E-01
 0.96547794220E-02 0.26337482173E-02 0.69866272884E-03 0.40519266465E-02 0.61933212112E-02
 0.57327791899E-02 0.72955054239E-02 0.10590487123E-01 0.88373094263E-02 0.41552096838E-02
 0.15405179275E-01 0.53377810453E-01 0.78333015922E-01 -.10665995727E-01 -.32206720178E+00
 -.87920734686E+00 -.15601286820E+01 -.21296064330E+01 0.59447358463E+00 0.53639426631E+00
 0.40463928082E+00 0.25421454521E+00 0.13241687156E+00 0.59319813989E-01 0.30006522382E-01
 0.26082861944E-01 0.27006535201E-01 0.20630997436E-01 0.87530218928E-02 0.76112904349E-03
 0.44233615051E-03 0.23589266319E-02 0.15420961181E-02 0.97394614986E-03 0.54645666642E-02
 0.12493272016E-01 0.14878983661E-01 0.10854601555E-01 0.59184007542E-02 0.48285730589E-02
 0.66806750479E-02 0.87139869191E-02 0.10340183941E-01 0.11483265785E-01 0.10751031732E-01
 0.79706577537E-02 0.58873666314E-02 0.66867702765E-02 0.87837960112E-02 0.93956651313E-02
 0.84064497147E-02 0.72878155755E-02 0.62126649285E-02 0.51039644346E-02 0.56205212362E-02
 0.84638843247E-02 0.10211652471E-01 0.72084521981E-02 0.19590220510E-02 0.59646866954E-03
 0.36040592015E-02 0.47205054091E-02 0.12359943773E-02 -.60726848286E-03 0.46316977573E-02
 0.10718772043E-01 0.60604697965E-02 -.85639366627E-02 -.12785158542E-01 0.21796061640E-01
 0.11340292245E+00 0.25724942304E+00 0.42072639120E+00 0.55013451843E+00 0.23913079541E+01
 0.21901906503E+01 0.16530816517E+01 0.10107032804E+01 0.48535410207E+00 0.18163812194E+00
 0.70999541839E-01 0.56283393274E-01 0.53258599496E-01 0.32730116237E-01 0.87011574891E-02
 -.43880937674E-03 0.35927576911E-02 0.65533829014E-02 0.26581983299E-02 -.50564549594E-03
 0.37346483027E-02 0.10691859951E-01 0.11952665389E-01 0.74795188719E-02 0.41987286734E-02
 0.55121475337E-02 0.84484456273E-02 0.10247655658E-01 0.11657427199E-01 0.12850797507E-01
 0.11589292084E-01 0.77333646622E-02 0.52295386018E-02 0.66861308072E-02 0.93755130805E-02
 0.97030264909E-02 0.85339893565E-02 0.84536593064E-02 0.85432091892E-02 0.65438245499E-02
 0.42860996632E-02 0.54284978818E-02 0.83147452676E-02 0.71854970741E-02 0.16485169850E-02
 -.12682203843E-02 0.22632553142E-02 0.60433382917E-02 0.33764833208E-02 -.84272154822E-03
 0.31805550048E-02 0.10435977841E-01 -.14144301382E-02 -.41646071583E-01 -.66924292625E-01
 0.23663750147E-01 0.33597319553E+00 0.89377199598E+00 0.15785519392E+01 0.21556449684E+01
 -.33090040230E+00 -.29743438988E+00 -.22120650917E+00 -.13352122135E+00 -.62084211627E-01
 -.19820433395E-01 -.54304903569E-02 -.81135598332E-02 -.13205499381E-01 -.10446826973E-01
 -.56693575973E-03 0.80167576435E-02 0.94969540739E-02 0.58203436691E-02 0.19933645761E-02
 0.54754605198E-03 0.19212215102E-02 0.60260268453E-02 0.10431826609E-01 0.10581113814E-01
 0.57406698899E-02 0.21194183156E-02 0.54452208164E-02 0.12296352306E-01 0.14177047278E-01
 0.94760915871E-02 0.52254888605E-02 0.60668829998E-02 0.80081631154E-02 0.63515176186E-02
 0.39292339665E-02 0.59070578052E-02 0.10306416141E-01 0.10524577797E-01 0.58996100338E-02
 0.29101209186E-02 0.51195039070E-02 0.80666214613E-02 0.66126706324E-02 0.23883018811E-02
 0.44292751089E-03 0.20455528557E-02 0.46733775964E-02 0.65279424431E-02 0.70196533295E-02
 0.46348309631E-02 -.95791592777E-03 -.52348649442E-02 -.21592373007E-02 0.68233784179E-02
 0.94954893111E-02 -.10107793290E-01 -.61569737907E-01 -.14188581839E+00 -.23322904777E+00
 -.30593667567E+00 -.23701471043E+01 -.21699843621E+01 -.16350181829E+01 -.99716597013E+00
 -.47589399973E+00 -.17268891938E+00 -.61680488254E-01 -.51009071828E-01 -.55290050845E-01
 -.37462945771E-01 -.72921563572E-02 0.11112826801E-01 0.10820469501E-01 0.41606259814E-02
 0.20929901522E-02 0.28644291080E-02 0.22222962971E-02 0.31152452349E-02 0.82587164810E-02
 0.11661970958E-01 0.73819609469E-02 0.13364301108E-02 0.35690744923E-02 0.11579882846E-01
 0.13179522154E-01 0.58816202597E-02 0.10488559449E-02 0.53991707267E-02 0.10435820438E-01
 0.72581029389E-02 0.15277832377E-02 0.34285161676E-02 0.10061577870E-01 0.10297282011E-01
 0.36036381507E-02 0.84389939862E-03 0.60068746029E-02 0.98606215152E-02 0.55782177479E-02
 -.44165451406E-03 0.17424138315E-03 0.47834986270E-02 0.62503351130E-02 0.53745330775E-02
 0.65538583707E-02 0.57850763638E-02 -.38976187144E-02 -.13839942411E-01 -.41673928600E-03
 0.42453050130E-01 0.67675814252E-01 -.24061174885E-01 -.33338508866E+00 -.88307922065E+00
 -.15600153808E+01 -.21340582833E+01 0.11257054927E+00 0.10386356052E+00 0.81350316688E-01
 0.48885410617E-01 0.19509251332E-01 0.60664123051E-02 0.66812824305E-02 0.77926557237E-02
 0.23439975316E-02 -.29118662186E-02 -.39520361626E-03 0.63696784564E-02 0.88942395622E-02
 0.60715828659E-02 0.34769198974E-02 0.36864159476E-02 0.41960677864E-02 0.37929321285E-02
 0.44081203826E-02 0.62744015250E-02 0.68589838190E-02 0.58113204697E-02 0.59670446018E-02
 0.78482818128E-02 0.80094532067E-02 0.52342706876E-02 0.37016019335E-02 0.65194362168E-02
 0.10111969247E-01 0.94725614172E-02 0.59752100417E-02 0.48281664771E-02 0.66558801474E-02
 0.72431028601E-02 0.51521725715E-02 0.38489582300E-02 0.52457919055E-02 0.63220123227E-02
 0.44187274507E-02 0.16583557150E-02 0.12779325990E-02 0.28127720935E-02 0.38463210436E-02
 0.37706376871E-02 0.29395975132E-02 0.72993550168E-03 -.23213319871E-02 -.31465740038E-02
 -.66137799227E-03 0.11268763050E-02 -.15889410420E-03 0.25804611247E-02 0.20127097942E-01
 0.52431556846E-01 0.85979259315E-01 0.10717766488E+00 0.23716104845E+01 0.21758523781E+01
 0.16461830456E+01 0.10032872714E+01 0.47291299279E+00 0.17079094043E+00 0.68975356954E-01
 0.59298425370E-01 0.52397669259E-01 0.27381931121E-01 0.61622564379E-02 0.28204651902E-02
 0.76940778487E-02 0.79435279402E-02 0.43293674815E-02 0.35469075357E-02 0.53437109520E-02
 0.48572080531E-02 0.22641205634E-02 0.23401527757E-02 0.60720319593E-02 0.89654395615E-02
 0.80348942103E-02 0.55970633233E-02 0.48723346152E-02 0.56783356327E-02 0.64319030871E-02
 0.73929609199E-02 0.93080019921E-02 0.10715012367E-01 0.94693682682E-02 0.63193713989E-02
 0.44563067194E-02 0.53150976669E-02 0.67927221088E-02 0.63708993370E-02 0.44699663287E-02
 0.34010521179E-02 0.37616749567E-02 0.36809772451E-02 0.20488564959E-02 0.75468944179E-03
 0.17790025823E-02 0.30711701527E-02 0.90237671977E-03 -.27166631582E-02 -.52193065027E-03
 0.60935861060E-02 -.14615933809E-02 -.36501142121E-01 -.62394155498E-01 0.23104754497E-01
 0.33286336170E+00 0.89106515106E+00 0.15722208142E+01 0.21405520553E+01 0.11257054927E+00
 0.10386356052E+00 0.81350316688E-01 0.48885410617E-01 0.19509251332E-01 0.60664123051E-02