    3    3   10    1
  0.1667104E+03  0.7937700E-09  0.7937700E-09  0.7937700E-09  0.5000000E-15
  1.000000000000000E-004
  CAR 
 unknown system                          
      8      1      8
 
  0.0000000E+00  0.0000000E+00  0.0000000E+00  0.1000000E+01
      1        -26.577456   1.000000
      2        -13.304671   1.000000
      3         -9.621967   1.000000
      4         -7.196462   1.000000
      5         -1.119911   0.000000
      6          1.012064   0.000000
      7          1.308230   0.000000
      8          1.648041   0.000000
