       N       E                     dE             d eps       ncg     rms          rms(c)
DAV:   1     0.619626979631E+02    0.61963E+02   -0.11691E+03    16   0.275E+02
DAV:   2    -0.584856468755E+01   -0.67811E+02   -0.67783E+02    32   0.892E+01
DAV:   3    -0.150326206107E+02   -0.91841E+01   -0.91841E+01    16   0.566E+01
DAV:   4    -0.152389913367E+02   -0.20637E+00   -0.20637E+00    24   0.789E+00
DAV:   5    -0.152392126162E+02   -0.22128E-03   -0.22128E-03    16   0.247E-01    0.706E+00
DAV:   6    -0.145233256579E+02    0.71589E+00   -0.54391E-01    24   0.406E+00    0.425E+00
DAV:   7    -0.142871136415E+02    0.23621E+00   -0.37056E-01    24   0.354E+00    0.764E-01
DAV:   8    -0.142808015088E+02    0.63121E-02   -0.24743E-02    24   0.143E+00    0.147E-01
DAV:   9    -0.142938434593E+02   -0.13042E-01   -0.19049E-02    24   0.712E-01    0.143E-01
DAV:  10    -0.142957320400E+02   -0.18886E-02   -0.41489E-03    16   0.423E-01    0.436E-02
DAV:  11    -0.143014433795E+02   -0.57113E-02   -0.13264E-03    16   0.198E-01    0.227E-02
DAV:  12    -0.143020849766E+02   -0.64160E-03   -0.14043E-04    32   0.699E-02    0.761E-03
DAV:  13    -0.143027050670E+02   -0.62009E-03   -0.50551E-05    24   0.472E-02    0.721E-03
DAV:  14    -0.143028194147E+02   -0.11435E-03   -0.96797E-06    24   0.215E-02    0.162E-03
DAV:  15    -0.143028663729E+02   -0.46958E-04   -0.13904E-06    16   0.100E-02
   1 F= -.14302866E+02 E0= -.14302866E+02  d E =-.143029E+02
       N       E                     dE             d eps       ncg     rms          rms(c)
DAV:   1    -0.143015461709E+02    0.12732E-02   -0.28368E-01    16   0.433E+00    0.298E-01
DAV:   2    -0.142995570152E+02    0.19892E-02   -0.79239E-03    24   0.680E-01    0.130E-01
DAV:   3    -0.142994350966E+02    0.12192E-03   -0.18619E-03    16   0.300E-01    0.416E-02
DAV:   4    -0.142994687691E+02   -0.33672E-04   -0.39346E-04    32   0.135E-01
   2 F= -.14299469E+02 E0= -.14299469E+02  d E =0.339760E-02
       N       E                     dE             d eps       ncg     rms          rms(c)
DAV:   1    -0.143081228389E+02   -0.86877E-02   -0.12377E-01    16   0.269E+00    0.224E-01
DAV:   2    -0.143069200864E+02    0.12028E-02   -0.45629E-03    24   0.480E-01    0.848E-02
DAV:   3    -0.143068709787E+02    0.49108E-04   -0.66003E-04    16   0.177E-01
   3 F= -.14306871E+02 E0= -.14306871E+02  d E =-.740221E-02
       N       E                     dE             d eps       ncg     rms          rms(c)
DAV:   1    -0.143068968107E+02    0.23276E-04   -0.20243E-02    16   0.128E+00    0.338E-02
DAV:   2    -0.143069119055E+02   -0.15095E-04   -0.20540E-04    16   0.121E-01
   4 F= -.14306912E+02 E0= -.14306912E+02  d E =-.409268E-04
       N       E                     dE             d eps       ncg     rms          rms(c)
DAV:   1    -0.143068095330E+02    0.87278E-04   -0.96185E-04    32   0.269E-01    0.135E-02
DAV:   2    -0.143068112329E+02   -0.16999E-05   -0.46177E-06     8   0.137E-02
   5 F= -.14306811E+02 E0= -.14306811E+02  d E =0.100673E-03
