 vasp.6.3.2 27Jun22 (build Oct 19 2022 15:35:57) gamma-only                     
  
 executed on             LinuxIFC date 2023.09.19  17:55:17
 running    1 mpi-ranks, with    1 threads/rank
 distrk:  each k-point on    1 cores,    1 groups
 distr:  one band on NCORE=   1 cores,    1 groups


--------------------------------------------------------------------------------------------------------


 INCAR:
   PREC = Normal
   ISMEAR = 0
   SIGMA = 0.1
   IBRION = 1
   NFREE = 2
   NSW = 20
   EDIFFG = -0.02
   ENCUT = 200

 POTCAR:   PAW_RPBE O 08Apr2002                   
 POTCAR:   PAW_RPBE H 15Jun2001                   
 POTCAR:   PAW_RPBE O 08Apr2002                   
   VRHFIN =O: s2p4                                                                                  
   LEXCH  = PE                                                                                      
   EATOM  =   432.3788 eV,   31.7789 Ry                                                             
                                                                                                    
   TITEL  = PAW_RPBE O 08Apr2002                                                                    
   LULTRA =        F    use ultrasoft PP ?                                                          
   IUNSCR =        0    unscreen: 0-lin 1-nonlin 2-no                                               
   RPACOR =     .000    partial core radius                                                         
   POMASS =   16.000; ZVAL   =    6.000    mass and valenz                                          
   RCORE  =    1.520    outmost cutoff radius                                                       
   RWIGS  =    1.550; RWIGS  =     .820    wigner-seitz radius (au A)                               
   ENMAX  =  400.000; ENMIN  =  300.000 eV                                                          
   ICORE  =        2    local potential                                                             
   LCOR   =        T    correct aug charges                                                         
   LPAW   =        T    paw PP                                                                      
   EAUG   =  605.392                                                                                
   DEXC   =     .000                                                                                
   RMAX   =    2.264    core radius for proj-oper                                                   
   RAUG   =    1.300    factor for augmentation sphere                                              
   RDEP   =    1.550    radius for radial grids                                                     
   QCUT   =   -5.520; QGAM   =   11.041    optimization parameters                                  
                                                                                                    
   Description                                                                                      
     l     E      TYP  RCUT    TYP  RCUT                                                            
     0   .000     23  1.200                                                                         
     0  -.700     23  1.200                                                                         
     1   .000     23  1.520                                                                         
     1   .600     23  1.520                                                                         
     2   .000      7  1.500                                                                         
  local pseudopotential read in
  atomic valenz-charges read in
  non local Contribution for L=           0  read in
    real space projection operators read in
  non local Contribution for L=           0  read in
    real space projection operators read in
  non local Contribution for L=           1  read in
    real space projection operators read in
  non local Contribution for L=           1  read in
    real space projection operators read in
    PAW grid and wavefunctions read in
 
   number of l-projection  operators is LMAX  =           4
   number of lm-projection operators is LMMAX =           8
 
 POTCAR:   PAW_RPBE H 15Jun2001                   
   VRHFIN =H: ultrasoft test                                                                        
   LEXCH  = PE                                                                                      
   EATOM  =    12.4884 eV,     .9179 Ry                                                             
                                                                                                    
   TITEL  = PAW_RPBE H 15Jun2001                                                                    
   LULTRA =        F    use ultrasoft PP ?                                                          
   IUNSCR =        0    unscreen: 0-lin 1-nonlin 2-no                                               
   RPACOR =     .000    partial core radius                                                         
   POMASS =    1.000; ZVAL   =    1.000    mass and valenz                                          
   RCORE  =    1.100    outmost cutoff radius                                                       
   RWIGS  =     .700; RWIGS  =     .370    wigner-seitz radius (au A)                               
   ENMAX  =  250.000; ENMIN  =  200.000 eV                                                          
   RCLOC  =     .701    cutoff for local pot                                                        
   LCOR   =        T    correct aug charges                                                         
   LPAW   =        T    paw PP                                                                      
   EAUG   =  400.000                                                                                
   RMAX   =    2.174    core radius for proj-oper                                                   
   RAUG   =    1.200    factor for augmentation sphere                                              
   RDEP   =    1.112    radius for radial grids                                                     
   QCUT   =   -5.749; QGAM   =   11.498    optimization parameters                                  
                                                                                                    
   Description                                                                                      
     l     E      TYP  RCUT    TYP  RCUT                                                            
     0   .000     23  1.100                                                                         
     0   .500     23  1.100                                                                         
     1  -.300     23  1.100                                                                         
  local pseudopotential read in
  atomic valenz-charges read in
  non local Contribution for L=           0  read in
    real space projection operators read in
  non local Contribution for L=           0  read in
    real space projection operators read in
  non local Contribution for L=           1  read in
    real space projection operators read in
    PAW grid and wavefunctions read in
 
   number of l-projection  operators is LMAX  =           3
   number of lm-projection operators is LMMAX =           5
 
 PAW_RPBE O 08Apr2002                   :
 energy of atom  1       EATOM= -432.3788
 kinetic energy error for atom=    8.1852 (will be added to EATOM!!)
 PAW_RPBE H 15Jun2001                   :
 energy of atom  2       EATOM=  -12.4884
 kinetic energy error for atom=    0.1732 (will be added to EATOM!!)
 
 
 POSCAR: H2O _2
  positions in cartesian coordinates
  No initial velocities read in
 exchange correlation table for  LEXCH =        8
   RHO(1)=    0.500       N(1)  =     2000
   RHO(2)=  100.500       N(2)  =     4000
 


--------------------------------------------------------------------------------------------------------


 ion  position               nearest neighbor table
   1  0.000  0.000  0.000-   2 0.95   3 0.95
   2  0.073  0.905  0.000-   1 0.95
   3  0.073  0.095  0.000-   1 0.95
 
  LATTYP: Found a simple cubic cell.
 ALAT       =     7.9377000000
  
  Lattice vectors:
  
 A1 = (   7.9377000000,   0.0000000000,   0.0000000000)
 A2 = (   0.0000000000,   7.9377000000,   0.0000000000)
 A3 = (   0.0000000000,   0.0000000000,   7.9377000000)


Analysis of symmetry for initial positions (statically):
=====================================================================
 Subroutine PRICEL returns:
 Original cell was already a primitive cell.
 

 Routine SETGRP: Setting up the symmetry group for a 
 simple cubic supercell.


 Subroutine GETGRP returns: Found  4 space group operations
 (whereof  4 operations were pure point group operations)
 out of a pool of 48 trial point group operations.


The static configuration has the point symmetry C_2v.


Analysis of symmetry for dynamics (positions and initial velocities):
=====================================================================
 Subroutine PRICEL returns:
 Original cell was already a primitive cell.
 

 Routine SETGRP: Setting up the symmetry group for a 
 simple cubic supercell.


 Subroutine GETGRP returns: Found  4 space group operations
 (whereof  4 operations were pure point group operations)
 out of a pool of 48 trial point group operations.


The dynamic configuration has the point symmetry C_2v.


Analysis of constrained symmetry for selective dynamics:
=====================================================================
 Subroutine PRICEL returns:
 Original cell was already a primitive cell.
 

 Routine SETGRP: Setting up the symmetry group for a 
 simple cubic supercell.


 Subroutine GETGRP returns: Found  4 space group operations
 (whereof  4 operations were pure point group operations)
 out of a pool of 48 trial point group operations.


The constrained configuration has the point symmetry C_2v.


 Subroutine INISYM returns: Found  4 space group operations
 (whereof  4 operations are pure point group operations),
 and found     1 'primitive' translations


----------------------------------------------------------------------------------------

                                     Primitive cell                                     

  volume of cell :     500.1313

  direct lattice vectors                    reciprocal lattice vectors
     7.937700000  0.000000000  0.000000000     0.125981078  0.000000000  0.000000000
     0.000000000  7.937700000  0.000000000     0.000000000  0.125981078  0.000000000
     0.000000000  0.000000000  7.937700000     0.000000000  0.000000000  0.125981078

  length of vectors
     7.937700000  7.937700000  7.937700000     0.125981078  0.125981078  0.125981078

  position of ions in fractional coordinates (direct lattice)
     0.000000000  0.000000000  0.000000000
     0.073333333  0.904666667  0.000000000
     0.073333333  0.095333333  0.000000000

  ion indices of the primitive-cell ions
   primitive index   ion index
                 1           1
                 2           2
                 3           3

----------------------------------------------------------------------------------------

 
 
 KPOINTS: Gamma-point only                        

Automatic generation of k-mesh.
 Grid dimensions read from file:
 generate k-points for:    1    1    1

 Generating k-lattice:

  Cartesian coordinates                     Fractional coordinates (reciprocal lattice)
     0.125981078  0.000000000  0.000000000     1.000000000  0.000000000  0.000000000
     0.000000000  0.125981078  0.000000000     0.000000000  1.000000000  0.000000000
     0.000000000  0.000000000  0.125981078     0.000000000  0.000000000  1.000000000

  Length of vectors
     0.125981078  0.125981078  0.125981078

  Shift w.r.t. Gamma in fractional coordinates (k-lattice)
     0.000000000  0.000000000  0.000000000

 
 Subroutine IBZKPT returns following result:
 ===========================================
 
 Found      1 irreducible k-points:
 
 Following reciprocal coordinates:
            Coordinates               Weight
  0.000000  0.000000  0.000000      1.000000
 
 Following cartesian coordinates:
            Coordinates               Weight
  0.000000  0.000000  0.000000      1.000000
 


--------------------------------------------------------------------------------------------------------




 Dimension of arrays:
   k-points           NKPTS =      1   k-points in BZ     NKDIM =      1   number of bands    NBANDS=      8
   number of dos      NEDOS =    301   number of ions     NIONS =      3
   non local maximal  LDIM  =      4   non local SUM 2l+1 LMDIM =      8
   total plane-waves  NPLWV =  21952
   max r-space proj   IRMAX =      1   max aug-charges    IRDMAX=    769
   dimension x,y,z NGX =    28 NGY =   28 NGZ =   28
   dimension x,y,z NGXF=    56 NGYF=   56 NGZF=   56
   support grid    NGXF=    56 NGYF=   56 NGZF=   56
   ions per type =               1   2
   NGX,Y,Z   is equivalent  to a cutoff of   5.86,  5.86,  5.86 a.u.
   NGXF,Y,Z  is equivalent  to a cutoff of  11.73, 11.73, 11.73 a.u.

 SYSTEM =  unknown system                          
 POSCAR =  H2O _2                                  

 Startparameter for this run:
   NWRITE =      2    write-flag & timer
   PREC   = normal    normal or accurate (medium, high low for compatibility)
   ISTART =      0    job   : 0-new  1-cont  2-samecut
   ICHARG =      2    charge: 1-file 2-atom 10-const
   ISPIN  =      1    spin polarized calculation?
   LNONCOLLINEAR =      F non collinear calculations
   LSORBIT =      F    spin-orbit coupling
   INIWAV =      1    electr: 0-lowe 1-rand  2-diag
   LASPH  =      F    aspherical Exc in radial PAW
 Electronic Relaxation 1
   ENCUT  =  200.0 eV  14.70 Ry    3.83 a.u.   9.15  9.15  9.15*2*pi/ulx,y,z
   ENINI  =  200.0     initial cutoff
   ENAUG  =  605.4 eV  augmentation charge cutoff
   NELM   =     60;   NELMIN=  2; NELMDL= -5     # of ELM steps 
   EDIFF  = 0.1E-03   stopping-criterion for ELM
   LREAL  =      F    real-space projection
   NLSPLINE    = F    spline interpolate recip. space projectors
   LCOMPAT=      F    compatible to vasp.4.4
   GGA_COMPAT  = T    GGA compatible to vasp.4.4-vasp.4.6
   LMAXPAW     = -100 max onsite density
   LMAXMIX     =    2 max onsite mixed and CHGCAR
   VOSKOWN=      0    Vosko Wilk Nusair interpolation
   ROPT   =    0.00000   0.00000
 Ionic relaxation
   EDIFFG = -.2E-01   stopping-criterion for IOM
   NSW    =     20    number of steps for IOM
   NBLOCK =      1;   KBLOCK =     20    inner block; outer block 
   IBRION =      1    ionic relax: 0-MD 1-quasi-New 2-CG
   NFREE  =      2    steps in history (QN), initial steepest desc. (CG)
   ISIF   =      2    stress and relaxation
   IWAVPR =     11    prediction:  0-non 1-charg 2-wave 3-comb
   ISYM   =      2    0-nonsym 1-usesym 2-fastsym
   LCORR  =      T    Harris-Foulkes like correction to forces

   POTIM  = 0.5000    time-step for ionic-motion
   TEIN   =    0.0    initial temperature
   TEBEG  =    0.0;   TEEND  =   0.0 temperature during run
   SMASS  =  -3.00    Nose mass-parameter (am)
   estimated Nose-frequenzy (Omega)   =  0.10E-29 period in steps = 0.13E+47 mass=  -0.144E-26a.u.
   SCALEE = 1.0000    scale energy and forces
   NPACO  =    256;   APACO  = 10.0  distance and # of slots for P.C.
   PSTRESS=    0.0 pullay stress

  Mass of Ions in am
   POMASS =  16.00  1.00
  Ionic Valenz
   ZVAL   =   6.00  1.00
  Atomic Wigner-Seitz radii
   RWIGS  =  -1.00 -1.00
  virtual crystal weights 
   VCA    =   1.00  1.00
   NELECT =       8.0000    total number of electrons
   NUPDOWN=      -1.0000    fix difference up-down

 DOS related values:
   EMIN   =  10.00;   EMAX   =-10.00  energy-range for DOS
   EFERMI =   0.00
   ISMEAR =     0;   SIGMA  =   0.10  broadening in eV -4-tet -1-fermi 0-gaus

 Electronic relaxation 2 (details)
   IALGO  =     38    algorithm
   LDIAG  =      T    sub-space diagonalisation (order eigenvalues)
   LSUBROT=      F    optimize rotation matrix (better conditioning)
   TURBO    =      0    0=normal 1=particle mesh
   IRESTART =      0    0=no restart 2=restart with 2 vectors
   NREBOOT  =      0    no. of reboots
   NMIN     =      0    reboot dimension
   EREF     =   0.00    reference energy to select bands
   IMIX   =      4    mixing-type and parameters
     AMIX     =   0.40;   BMIX     =  1.00
     AMIX_MAG =   1.60;   BMIX_MAG =  1.00
     AMIN     =   0.10
     WC   =   100.;   INIMIX=   1;  MIXPRE=   1;  MAXMIX= -45

 Intra band minimization:
   WEIMIN = 0.0010     energy-eigenvalue tresh-hold
   EBREAK =  0.31E-05  absolut break condition
   DEPER  =   0.30     relativ break condition  

   TIME   =   0.40     timestep for ELM

  volume/ion in A,a.u.               =     166.71      1125.02
  Fermi-wavevector in a.u.,A,eV,Ry     =   0.412487  0.779487  2.314969  0.170145
  Thomas-Fermi vector in A             =   1.369490
 
 Write flags
   LWAVE        =      T    write WAVECAR
   LDOWNSAMPLE  =      F    k-point downsampling of WAVECAR
   LCHARG       =      T    write CHGCAR
   LVTOT        =      F    write LOCPOT, total local potential
   LVHAR        =      F    write LOCPOT, Hartree potential only
   LELF         =      F    write electronic localiz. function (ELF)
   LORBIT       =      0    0 simple, 1 ext, 2 COOP (PROOUT), +10 PAW based schemes


 Dipole corrections
   LMONO  =      F    monopole corrections only (constant potential shift)
   LDIPOL =      F    correct potential (dipole corrections)
   IDIPOL =      0    1-x, 2-y, 3-z, 4-all directions 
   EPSILON=  1.0000000 bulk dielectric constant

 Exchange correlation treatment:
   GGA     =    --    GGA type
   LEXCH   =     8    internal setting for exchange type
   LIBXC   =     F    Libxc                    
   VOSKOWN =     0    Vosko Wilk Nusair interpolation
   LHFCALC =     F    Hartree Fock is set to
   LHFONE  =     F    Hartree Fock one center treatment
   AEXX    =    0.0000 exact exchange contribution

 Linear response parameters
   LEPSILON=     F    determine dielectric tensor
   LRPA    =     F    only Hartree local field effects (RPA)
   LNABLA  =     F    use nabla operator in PAW spheres
   LVEL    =     F    velocity operator in full k-point grid
   CSHIFT  =0.1000    complex shift for real part using Kramers Kronig
   OMEGAMAX=  -1.0    maximum frequency
   DEG_THRESHOLD= 0.2000000E-02 threshold for treating states as degnerate
   RTIME   =   -0.100 relaxation time in fs
  (WPLASMAI=    0.000 imaginary part of plasma frequency in eV, 0.658/RTIME)
   DFIELD  = 0.0000000 0.0000000 0.0000000 field for delta impulse in time
 
  Optional k-point grid parameters
   LKPOINTS_OPT  =     F    use optional k-point grid
   KPOINTS_OPT_MODE=     1    mode for optional k-point grid
 
 Orbital magnetization related:
   ORBITALMAG=     F  switch on orbital magnetization
   LCHIMAG   =     F  perturbation theory with respect to B field
   DQ        =  0.001000  dq finite difference perturbation B field
   LLRAUG    =     F  two centre corrections for induced B field



--------------------------------------------------------------------------------------------------------


 quasi-Newton-method for relaxation of ions
   using selective dynamics as specified on POSCAR
   WARNING: If single coordinates had been selected the selection of coordinates
            is made according to the corresponding   d i r e c t   coordinates!
            Don't support selection of single cartesian coordinates -- sorry ...
  !
 charge density and potential will be updated during run
 non-spin polarized calculation
 Variant of blocked Davidson
 Davidson routine will perform the subspace rotation
 perform sub-space diagonalisation
    after iterative eigenvector-optimisation
 modified Broyden-mixing scheme, WC =      100.0
 initial mixing is a Kerker type mixing with AMIX =  0.4000 and BMIX =      1.0000
 Hartree-type preconditioning will be used
 using additional bands            4
 reciprocal scheme for non local part
 calculate Harris-corrections to forces 
   (improved forces if not selfconsistent)
 use gradient corrections 
 use of overlap-Matrix (Vanderbilt PP)
 Gauss-broadening in eV      SIGMA  =   0.10


--------------------------------------------------------------------------------------------------------


  energy-cutoff  :      200.00
  volume of cell :      500.13
      direct lattice vectors                 reciprocal lattice vectors
     7.937700000  0.000000000  0.000000000     0.125981078  0.000000000  0.000000000
     0.000000000  7.937700000  0.000000000     0.000000000  0.125981078  0.000000000
     0.000000000  0.000000000  7.937700000     0.000000000  0.000000000  0.125981078

  length of vectors
     7.937700000  7.937700000  7.937700000     0.125981078  0.125981078  0.125981078


 
 k-points in units of 2pi/SCALE and weight: Gamma-point only                        
   0.00000000  0.00000000  0.00000000       1.000
 
 k-points in reciprocal lattice and weights: Gamma-point only                        
   0.00000000  0.00000000  0.00000000       1.000
 
 position of ions in fractional coordinates (direct lattice) 
   0.00000000  0.00000000  0.00000000
   0.07333333  0.90466667  0.00000000
   0.07333333  0.09533333  0.00000000
 
 position of ions in cartesian coordinates  (Angst):
   0.00000000  0.00000000  0.00000000
   0.58209800  7.18097260  0.00000000
   0.58209800  0.75672740  0.00000000
 


--------------------------------------------------------------------------------------------------------


 use serial FFT for orbitals x direction half grid
 k-point   1 :   0.0000 0.0000 0.0000  plane waves:    1596

 maximum and minimum number of plane-waves per node :      1596     1596

 maximum number of plane-waves:      1596
 maximum index in each direction: 
   IXMAX=    9   IYMAX=    9   IZMAX=    9
   IXMIN=    0   IYMIN=   -9   IZMIN=   -9


 serial   3D FFT for wavefunctions
 parallel 3D FFT for charge:
    minimum data exchange during FFTs selected (reduces bandwidth)


 total amount of memory used by VASP MPI-rank0    47657. kBytes
=======================================================================

   base      :      30000. kBytes
   nonl-proj :        280. kBytes
   fftplans  :       6192. kBytes
   grid      :      10976. kBytes
   one-center:          4. kBytes
   wavefun   :        205. kBytes
 
     INWAV:  cpu time      0.0000: real time      0.0000
 Broyden mixing: mesh for mixing (old mesh)
   NGX = 19   NGY = 19   NGZ = 19
  (NGX  = 56   NGY  = 56   NGZ  = 56)
  gives a total of   6859 points

 initial charge density was supplied:
 charge density of overlapping atoms calculated
 number of electron       8.0000000 magnetization 
 keeping initial charge density in first step


--------------------------------------------------------------------------------------------------------


 Maximum index for augmentation-charges          515 (set IRDMAX)


--------------------------------------------------------------------------------------------------------


 First call to EWALD:  gamma=   0.223
 Maximum number of real-space cells 3x 3x 3
 Maximum number of reciprocal cells 3x 3x 3

    FEWALD:  cpu time      0.0014: real time      0.0014


--------------------------------------- Iteration      1(   1)  ---------------------------------------


    POTLOK:  cpu time      0.0592: real time      0.0595
    SETDIJ:  cpu time      0.0024: real time      0.0024
     EDDAV:  cpu time      0.0200: real time      0.0200
       DOS:  cpu time      0.0002: real time      0.0002
    --------------------------------------------
      LOOP:  cpu time      0.0819: real time      0.0822

 eigenvalue-minimisations  :    16
 total energy-change (2. order) : 0.6196270E+02  (-0.1169086E+03)
 number of electron       8.0000000 magnetization 
 augmentation part        8.0000000 magnetization 

 Free energy of the ion-electron system (eV)
  ---------------------------------------------------
  alpha Z        PSCENC =         0.44832783
  Ewald energy   TEWEN  =        26.60306768
  -Hartree energ DENC   =      -386.12288567
  -exchange      EXHF   =         0.00000000
  -V(xc)+E(xc)   XCENC  =        32.30060881
  PAW double counting   =       247.56105404     -249.42875511
  entropy T*S    EENTRO =        -0.00234224
  eigenvalues    EBANDS =       -58.22036053
  atomic energy  EATOM  =       448.82398315
  Solvation  Ediel_sol  =         0.00000000
  ---------------------------------------------------
  free energy    TOTEN  =        61.96269796 eV

  energy without entropy =       61.96504020  energy(sigma->0) =       61.96386908


--------------------------------------------------------------------------------------------------------




--------------------------------------- Iteration      1(   2)  ---------------------------------------


     EDDAV:  cpu time      0.0232: real time      0.0234
       DOS:  cpu time      0.0001: real time      0.0001
    --------------------------------------------
      LOOP:  cpu time      0.0233: real time      0.0234

 eigenvalue-minimisations  :    32
 total energy-change (2. order) :-0.6781126E+02  (-0.6778288E+02)
 number of electron       8.0000000 magnetization 
 augmentation part        8.0000000 magnetization 

 Free energy of the ion-electron system (eV)
  ---------------------------------------------------
  alpha Z        PSCENC =         0.44832783
  Ewald energy   TEWEN  =        26.60306768
  -Hartree energ DENC   =      -386.12288567
  -exchange      EXHF   =         0.00000000
  -V(xc)+E(xc)   XCENC  =        32.30060881
  PAW double counting   =       247.56105404     -249.42875511
  entropy T*S    EENTRO =        -0.00000000
  eigenvalues    EBANDS =      -126.03396542
  atomic energy  EATOM  =       448.82398315
  Solvation  Ediel_sol  =         0.00000000
  ---------------------------------------------------
  free energy    TOTEN  =        -5.84856469 eV

  energy without entropy =       -5.84856469  energy(sigma->0) =       -5.84856469


--------------------------------------------------------------------------------------------------------




--------------------------------------- Iteration      1(   3)  ---------------------------------------


     EDDAV:  cpu time      0.0129: real time      0.0130
       DOS:  cpu time      0.0001: real time      0.0001
    --------------------------------------------
      LOOP:  cpu time      0.0130: real time      0.0131

 eigenvalue-minimisations  :    16
 total energy-change (2. order) :-0.9184056E+01  (-0.9184056E+01)
 number of electron       8.0000000 magnetization 
 augmentation part        8.0000000 magnetization 

 Free energy of the ion-electron system (eV)
  ---------------------------------------------------
  alpha Z        PSCENC =         0.44832783
  Ewald energy   TEWEN  =        26.60306768
  -Hartree energ DENC   =      -386.12288567
  -exchange      EXHF   =         0.00000000
  -V(xc)+E(xc)   XCENC  =        32.30060881
  PAW double counting   =       247.56105404     -249.42875511
  entropy T*S    EENTRO =        -0.00000000
  eigenvalues    EBANDS =      -135.21802134
  atomic energy  EATOM  =       448.82398315
  Solvation  Ediel_sol  =         0.00000000
  ---------------------------------------------------
  free energy    TOTEN  =       -15.03262061 eV

  energy without entropy =      -15.03262061  energy(sigma->0) =      -15.03262061


--------------------------------------------------------------------------------------------------------




--------------------------------------- Iteration      1(   4)  ---------------------------------------


     EDDAV:  cpu time      0.0169: real time      0.0170
       DOS:  cpu time      0.0001: real time      0.0001
    --------------------------------------------
      LOOP:  cpu time      0.0169: real time      0.0171

 eigenvalue-minimisations  :    24
 total energy-change (2. order) :-0.2063707E+00  (-0.2063707E+00)
 number of electron       8.0000000 magnetization 
 augmentation part        8.0000000 magnetization 

 Free energy of the ion-electron system (eV)
  ---------------------------------------------------
  alpha Z        PSCENC =         0.44832783
  Ewald energy   TEWEN  =        26.60306768
  -Hartree energ DENC   =      -386.12288567
  -exchange      EXHF   =         0.00000000
  -V(xc)+E(xc)   XCENC  =        32.30060881
  PAW double counting   =       247.56105404     -249.42875511
  entropy T*S    EENTRO =        -0.00000000
  eigenvalues    EBANDS =      -135.42439207
  atomic energy  EATOM  =       448.82398315
  Solvation  Ediel_sol  =         0.00000000
  ---------------------------------------------------
  free energy    TOTEN  =       -15.23899134 eV

  energy without entropy =      -15.23899134  energy(sigma->0) =      -15.23899134


--------------------------------------------------------------------------------------------------------




--------------------------------------- Iteration      1(   5)  ---------------------------------------


     EDDAV:  cpu time      0.0137: real time      0.0138
       DOS:  cpu time      0.0001: real time      0.0001
    CHARGE:  cpu time      0.0069: real time      0.0069
    MIXING:  cpu time      0.0032: real time      0.0032
    --------------------------------------------
      LOOP:  cpu time      0.0239: real time      0.0240

 eigenvalue-minimisations  :    16
 total energy-change (2. order) :-0.2212795E-03  (-0.2212795E-03)
 number of electron       8.0000299 magnetization 
 augmentation part        0.5718486 magnetization 

 Broyden mixing:
  rms(total) = 0.70633E+00    rms(broyden)= 0.68394E+00
  rms(prec ) = 0.89796E+00
  weight for this iteration     100.00

 Free energy of the ion-electron system (eV)
  ---------------------------------------------------
  alpha Z        PSCENC =         0.44832783
  Ewald energy   TEWEN  =        26.60306768
  -Hartree energ DENC   =      -386.12288567
  -exchange      EXHF   =         0.00000000
  -V(xc)+E(xc)   XCENC  =        32.30060881
  PAW double counting   =       247.56105404     -249.42875511
  entropy T*S    EENTRO =        -0.00000000
  eigenvalues    EBANDS =      -135.42461335
  atomic energy  EATOM  =       448.82398315
  Solvation  Ediel_sol  =         0.00000000
  ---------------------------------------------------
  free energy    TOTEN  =       -15.23921262 eV

  energy without entropy =      -15.23921262  energy(sigma->0) =      -15.23921262


--------------------------------------------------------------------------------------------------------




--------------------------------------- Iteration      1(   6)  ---------------------------------------


    POTLOK:  cpu time      0.0520: real time      0.0523
    SETDIJ:  cpu time      0.0021: real time      0.0021
     EDDAV:  cpu time      0.0190: real time      0.0191
       DOS:  cpu time      0.0001: real time      0.0001
    CHARGE:  cpu time      0.0049: real time      0.0050
    MIXING:  cpu time      0.0031: real time      0.0031
    --------------------------------------------
      LOOP:  cpu time      0.0813: real time      0.0817

 eigenvalue-minimisations  :    24
 total energy-change (2. order) : 0.7158870E+00  (-0.5439116E-01)
 number of electron       8.0000283 magnetization 
 augmentation part        0.5499056 magnetization 

 Broyden mixing:
  rms(total) = 0.42507E+00    rms(broyden)= 0.42367E+00
  rms(prec ) = 0.54129E+00
  weight for this iteration     100.00

 eigenvalues of (default mixing * dielectric matrix)
  average eigenvalue GAMMA=   2.3626
  2.3626

 Free energy of the ion-electron system (eV)
  ---------------------------------------------------
  alpha Z        PSCENC =         0.44832783
  Ewald energy   TEWEN  =        26.60306768
  -Hartree energ DENC   =      -396.36903422
  -exchange      EXHF   =         0.00000000
  -V(xc)+E(xc)   XCENC  =        32.90898560
  PAW double counting   =       299.08310334     -300.62850526
  entropy T*S    EENTRO =        -0.00000000
  eigenvalues    EBANDS =      -125.39325378
  atomic energy  EATOM  =       448.82398315
  Solvation  Ediel_sol  =         0.00000000
  ---------------------------------------------------
  free energy    TOTEN  =       -14.52332566 eV

  energy without entropy =      -14.52332566  energy(sigma->0) =      -14.52332566


--------------------------------------------------------------------------------------------------------




--------------------------------------- Iteration      1(   7)  ---------------------------------------


    POTLOK:  cpu time      0.0465: real time      0.0467
    SETDIJ:  cpu time      0.0021: real time      0.0021
     EDDAV:  cpu time      0.0177: real time      0.0177
       DOS:  cpu time      0.0001: real time      0.0001
    CHARGE:  cpu time      0.0048: real time      0.0048
    MIXING:  cpu time      0.0022: real time      0.0022
    --------------------------------------------
      LOOP:  cpu time      0.0733: real time      0.0736

 eigenvalue-minimisations  :    24
 total energy-change (2. order) : 0.2362120E+00  (-0.3705556E-01)
 number of electron       8.0000273 magnetization 
 augmentation part        0.5354955 magnetization 

 Broyden mixing:
  rms(total) = 0.76395E-01    rms(broyden)= 0.76061E-01
  rms(prec ) = 0.11142E+00
  weight for this iteration     100.00

 eigenvalues of (default mixing * dielectric matrix)
  average eigenvalue GAMMA=   1.9275
  1.3815  2.4735

 Free energy of the ion-electron system (eV)
  ---------------------------------------------------
  alpha Z        PSCENC =         0.44832783
  Ewald energy   TEWEN  =        26.60306768
  -Hartree energ DENC   =      -407.57943125
  -exchange      EXHF   =         0.00000000
  -V(xc)+E(xc)   XCENC  =        33.51165921
  PAW double counting   =       366.66637324     -367.77072157
  entropy T*S    EENTRO =        -0.00000000
  eigenvalues    EBANDS =      -114.99037193
  atomic energy  EATOM  =       448.82398315
  Solvation  Ediel_sol  =         0.00000000
  ---------------------------------------------------
  free energy    TOTEN  =       -14.28711364 eV

  energy without entropy =      -14.28711364  energy(sigma->0) =      -14.28711364


--------------------------------------------------------------------------------------------------------




--------------------------------------- Iteration      1(   8)  ---------------------------------------


    POTLOK:  cpu time      0.0469: real time      0.0472
    SETDIJ:  cpu time      0.0021: real time      0.0021
     EDDAV:  cpu time      0.0188: real time      0.0188
       DOS:  cpu time      0.0001: real time      0.0001
    CHARGE:  cpu time      0.0047: real time      0.0047
    MIXING:  cpu time      0.0022: real time      0.0023
    --------------------------------------------
      LOOP:  cpu time      0.0749: real time      0.0753

 eigenvalue-minimisations  :    24
 total energy-change (2. order) : 0.6312133E-02  (-0.2474348E-02)
 number of electron       8.0000276 magnetization 
 augmentation part        0.5392184 magnetization 

 Broyden mixing:
  rms(total) = 0.14720E-01    rms(broyden)= 0.14630E-01
  rms(prec ) = 0.44558E-01
  weight for this iteration     100.00

 eigenvalues of (default mixing * dielectric matrix)
  average eigenvalue GAMMA=   1.9505
  1.3430  2.4192  2.0892

 Free energy of the ion-electron system (eV)
  ---------------------------------------------------
  alpha Z        PSCENC =         0.44832783
  Ewald energy   TEWEN  =        26.60306768
  -Hartree energ DENC   =      -408.33229613
  -exchange      EXHF   =         0.00000000
  -V(xc)+E(xc)   XCENC  =        33.54960594
  PAW double counting   =       370.51036545     -371.54619014
  entropy T*S    EENTRO =        -0.00000000
  eigenvalues    EBANDS =      -114.33766528
  atomic energy  EATOM  =       448.82398315
  Solvation  Ediel_sol  =         0.00000000
  ---------------------------------------------------
  free energy    TOTEN  =       -14.28080151 eV

  energy without entropy =      -14.28080151  energy(sigma->0) =      -14.28080151


--------------------------------------------------------------------------------------------------------




--------------------------------------- Iteration      1(   9)  ---------------------------------------


    POTLOK:  cpu time      0.0456: real time      0.0459
    SETDIJ:  cpu time      0.0021: real time      0.0022
     EDDAV:  cpu time      0.0179: real time      0.0180
       DOS:  cpu time      0.0001: real time      0.0001
    CHARGE:  cpu time      0.0048: real time      0.0048
    MIXING:  cpu time      0.0023: real time      0.0023
    --------------------------------------------
      LOOP:  cpu time      0.0728: real time      0.0731

 eigenvalue-minimisations  :    24
 total energy-change (2. order) :-0.1304195E-01  (-0.1904936E-02)
 number of electron       8.0000273 magnetization 
 augmentation part        0.5352604 magnetization 

 Broyden mixing:
  rms(total) = 0.14288E-01    rms(broyden)= 0.14276E-01
  rms(prec ) = 0.25252E-01
  weight for this iteration     100.00

 eigenvalues of (default mixing * dielectric matrix)
  average eigenvalue GAMMA=   2.0361
  3.3959  2.5439  1.1023  1.1023

 Free energy of the ion-electron system (eV)
  ---------------------------------------------------
  alpha Z        PSCENC =         0.44832783
  Ewald energy   TEWEN  =        26.60306768
  -Hartree energ DENC   =      -410.07645877
  -exchange      EXHF   =         0.00000000
  -V(xc)+E(xc)   XCENC  =        33.61267577
  PAW double counting   =       367.79222360     -368.82809905
  entropy T*S    EENTRO =        -0.00000000
  eigenvalues    EBANDS =      -112.66956367
  atomic energy  EATOM  =       448.82398315
  Solvation  Ediel_sol  =         0.00000000
  ---------------------------------------------------
  free energy    TOTEN  =       -14.29384346 eV

  energy without entropy =      -14.29384346  energy(sigma->0) =      -14.29384346


--------------------------------------------------------------------------------------------------------




--------------------------------------- Iteration      1(  10)  ---------------------------------------


    POTLOK:  cpu time      0.0456: real time      0.0459
    SETDIJ:  cpu time      0.0021: real time      0.0022
     EDDAV:  cpu time      0.0141: real time      0.0142
       DOS:  cpu time      0.0001: real time      0.0001
    CHARGE:  cpu time      0.0049: real time      0.0049
    MIXING:  cpu time      0.0027: real time      0.0027
    --------------------------------------------
      LOOP:  cpu time      0.0696: real time      0.0699

 eigenvalue-minimisations  :    16
 total energy-change (2. order) :-0.1888581E-02  (-0.4148930E-03)
 number of electron       8.0000274 magnetization 
 augmentation part        0.5374412 magnetization 

 Broyden mixing:
  rms(total) = 0.43650E-02    rms(broyden)= 0.43562E-02
  rms(prec ) = 0.10774E-01
  weight for this iteration     100.00

 eigenvalues of (default mixing * dielectric matrix)
  average eigenvalue GAMMA=   2.4143
  4.5293  2.6849  2.6849  1.0072  1.1651

 Free energy of the ion-electron system (eV)
  ---------------------------------------------------
  alpha Z        PSCENC =         0.44832783
  Ewald energy   TEWEN  =        26.60306768
  -Hartree energ DENC   =      -409.65875694
  -exchange      EXHF   =         0.00000000
  -V(xc)+E(xc)   XCENC  =        33.58085045
  PAW double counting   =       365.88752212     -366.92329833
  entropy T*S    EENTRO =        -0.00000000
  eigenvalues    EBANDS =      -113.05742801
  atomic energy  EATOM  =       448.82398315
  Solvation  Ediel_sol  =         0.00000000
  ---------------------------------------------------
  free energy    TOTEN  =       -14.29573204 eV

  energy without entropy =      -14.29573204  energy(sigma->0) =      -14.29573204


--------------------------------------------------------------------------------------------------------




--------------------------------------- Iteration      1(  11)  ---------------------------------------


    POTLOK:  cpu time      0.0460: real time      0.0463
    SETDIJ:  cpu time      0.0021: real time      0.0021
     EDDAV:  cpu time      0.0140: real time      0.0140
       DOS:  cpu time      0.0001: real time      0.0001
    CHARGE:  cpu time      0.0048: real time      0.0048
    MIXING:  cpu time      0.0027: real time      0.0027
    --------------------------------------------
      LOOP:  cpu time      0.0698: real time      0.0701

 eigenvalue-minimisations  :    16
 total energy-change (2. order) :-0.5711339E-02  (-0.1326366E-03)
 number of electron       8.0000274 magnetization 
 augmentation part        0.5368972 magnetization 

 Broyden mixing:
  rms(total) = 0.22712E-02    rms(broyden)= 0.22700E-02
  rms(prec ) = 0.40969E-02
  weight for this iteration     100.00

 eigenvalues of (default mixing * dielectric matrix)
  average eigenvalue GAMMA=   2.2894
  4.8526  3.0492  2.4946  0.9572  1.2360  1.1470

 Free energy of the ion-electron system (eV)
  ---------------------------------------------------
  alpha Z        PSCENC =         0.44832783
  Ewald energy   TEWEN  =        26.60306768
  -Hartree energ DENC   =      -409.79396801
  -exchange      EXHF   =         0.00000000
  -V(xc)+E(xc)   XCENC  =        33.58007834
  PAW double counting   =       367.75304276     -368.78708234
  entropy T*S    EENTRO =        -0.00000000
  eigenvalues    EBANDS =      -112.92889279
  atomic energy  EATOM  =       448.82398315
  Solvation  Ediel_sol  =         0.00000000
  ---------------------------------------------------
  free energy    TOTEN  =       -14.30144338 eV

  energy without entropy =      -14.30144338  energy(sigma->0) =      -14.30144338


--------------------------------------------------------------------------------------------------------




--------------------------------------- Iteration      1(  12)  ---------------------------------------


    POTLOK:  cpu time      0.0467: real time      0.0469
    SETDIJ:  cpu time      0.0022: real time      0.0022
     EDDAV:  cpu time      0.0227: real time      0.0228
       DOS:  cpu time      0.0001: real time      0.0001
    CHARGE:  cpu time      0.0047: real time      0.0047
    MIXING:  cpu time      0.0027: real time      0.0027
    --------------------------------------------
      LOOP:  cpu time      0.0790: real time      0.0794

 eigenvalue-minimisations  :    32
 total energy-change (2. order) :-0.6415971E-03  (-0.1404263E-04)
 number of electron       8.0000274 magnetization 
 augmentation part        0.5371781 magnetization 

 Broyden mixing:
  rms(total) = 0.76111E-03    rms(broyden)= 0.75958E-03
  rms(prec ) = 0.17569E-02
  weight for this iteration     100.00

 eigenvalues of (default mixing * dielectric matrix)
  average eigenvalue GAMMA=   2.4078
  5.4725  3.3910  2.5092  2.3215  1.1851  1.0290  0.9460

 Free energy of the ion-electron system (eV)
  ---------------------------------------------------
  alpha Z        PSCENC =         0.44832783
  Ewald energy   TEWEN  =        26.60306768
  -Hartree energ DENC   =      -409.67413951
  -exchange      EXHF   =         0.00000000
  -V(xc)+E(xc)   XCENC  =        33.57233748
  PAW double counting   =       367.26870076     -368.30359876
  entropy T*S    EENTRO =        -0.00000000
  eigenvalues    EBANDS =      -113.04076361
  atomic energy  EATOM  =       448.82398315
  Solvation  Ediel_sol  =         0.00000000
  ---------------------------------------------------
  free energy    TOTEN  =       -14.30208498 eV

  energy without entropy =      -14.30208498  energy(sigma->0) =      -14.30208498


--------------------------------------------------------------------------------------------------------




--------------------------------------- Iteration      1(  13)  ---------------------------------------


    POTLOK:  cpu time      0.0480: real time      0.0482
    SETDIJ:  cpu time      0.0022: real time      0.0022
     EDDAV:  cpu time      0.0185: real time      0.0186
       DOS:  cpu time      0.0001: real time      0.0001
    CHARGE:  cpu time      0.0048: real time      0.0049
    MIXING:  cpu time      0.0029: real time      0.0029
    --------------------------------------------
      LOOP:  cpu time      0.0765: real time      0.0768

 eigenvalue-minimisations  :    24
 total energy-change (2. order) :-0.6200904E-03  (-0.5055060E-05)
 number of electron       8.0000274 magnetization 
 augmentation part        0.5372426 magnetization 

 Broyden mixing:
  rms(total) = 0.72133E-03    rms(broyden)= 0.72078E-03
  rms(prec ) = 0.10937E-02
  weight for this iteration     100.00

 eigenvalues of (default mixing * dielectric matrix)
  average eigenvalue GAMMA=   2.4187
  6.0817  3.7675  2.6773  2.5768  1.1890  1.0813  0.9878  0.9878

 Free energy of the ion-electron system (eV)
  ---------------------------------------------------
  alpha Z        PSCENC =         0.44832783
  Ewald energy   TEWEN  =        26.60306768
  -Hartree energ DENC   =      -409.65897100
  -exchange      EXHF   =         0.00000000
  -V(xc)+E(xc)   XCENC  =        33.57157938
  PAW double counting   =       367.01550615     -368.04989913
  entropy T*S    EENTRO =        -0.00000000
  eigenvalues    EBANDS =      -113.05629913
  atomic energy  EATOM  =       448.82398315
  Solvation  Ediel_sol  =         0.00000000
  ---------------------------------------------------
  free energy    TOTEN  =       -14.30270507 eV

  energy without entropy =      -14.30270507  energy(sigma->0) =      -14.30270507


--------------------------------------------------------------------------------------------------------




--------------------------------------- Iteration      1(  14)  ---------------------------------------


    POTLOK:  cpu time      0.0524: real time      0.0526
    SETDIJ:  cpu time      0.0024: real time      0.0024
     EDDAV:  cpu time      0.0210: real time      0.0211
       DOS:  cpu time      0.0001: real time      0.0001
    CHARGE:  cpu time      0.0070: real time      0.0070
    MIXING:  cpu time      0.0042: real time      0.0042
    --------------------------------------------
      LOOP:  cpu time      0.0872: real time      0.0875

 eigenvalue-minimisations  :    24
 total energy-change (2. order) :-0.1143477E-03  (-0.9679676E-06)
 number of electron       8.0000274 magnetization 
 augmentation part        0.5371595 magnetization 

 Broyden mixing:
  rms(total) = 0.16244E-03    rms(broyden)= 0.16217E-03
  rms(prec ) = 0.27660E-03
  weight for this iteration     100.00

 eigenvalues of (default mixing * dielectric matrix)
  average eigenvalue GAMMA=   2.5174
  6.3195  4.0268  3.1165  2.5256  2.5256  1.2209  1.0102  0.9558  0.9558

 Free energy of the ion-electron system (eV)
  ---------------------------------------------------
  alpha Z        PSCENC =         0.44832783
  Ewald energy   TEWEN  =        26.60306768
  -Hartree energ DENC   =      -409.67133324
  -exchange      EXHF   =         0.00000000
  -V(xc)+E(xc)   XCENC  =        33.57236448
  PAW double counting   =       367.01169442     -368.04634918
  entropy T*S    EENTRO =        -0.00000000
  eigenvalues    EBANDS =      -113.04457456
  atomic energy  EATOM  =       448.82398315
  Solvation  Ediel_sol  =         0.00000000
  ---------------------------------------------------
  free energy    TOTEN  =       -14.30281941 eV

  energy without entropy =      -14.30281941  energy(sigma->0) =      -14.30281941


--------------------------------------------------------------------------------------------------------




--------------------------------------- Iteration      1(  15)  ---------------------------------------


    POTLOK:  cpu time      0.0565: real time      0.0568
    SETDIJ:  cpu time      0.0021: real time      0.0022
     EDDAV:  cpu time      0.0137: real time      0.0138
       DOS:  cpu time      0.0001: real time      0.0001
    --------------------------------------------
      LOOP:  cpu time      0.0724: real time      0.0728

 eigenvalue-minimisations  :    16
 total energy-change (2. order) :-0.4695813E-04  (-0.1390384E-06)
 number of electron       8.0000274 magnetization 
 augmentation part        0.5371595 magnetization 

 Free energy of the ion-electron system (eV)
  ---------------------------------------------------
  alpha Z        PSCENC =         0.44832783
  Ewald energy   TEWEN  =        26.60306768
  -Hartree energ DENC   =      -409.67713979
  -exchange      EXHF   =         0.00000000
  -V(xc)+E(xc)   XCENC  =        33.57273398
  PAW double counting   =       367.09090198     -368.12551055
  entropy T*S    EENTRO =        -0.00000000
  eigenvalues    EBANDS =      -113.03923065
  atomic energy  EATOM  =       448.82398315
  Solvation  Ediel_sol  =         0.00000000
  ---------------------------------------------------
  free energy    TOTEN  =       -14.30286637 eV

  energy without entropy =      -14.30286637  energy(sigma->0) =      -14.30286637


--------------------------------------------------------------------------------------------------------




 average (electrostatic) potential at core
  the test charge radii are     0.7215  0.5201
  (the norm of the test charge is              0.9999)
       1 -84.6859       2 -44.6231       3 -44.6231
 
 
 
 E-fermi :  -6.6465     XC(G=0):  -1.1615     alpha+bet : -0.2602

 Fermi energy:        -6.6464576650

 k-point     1 :       0.0000    0.0000    0.0000
  band No.  band energies     occupation 
      1     -26.4829      2.00000
      2     -13.3603      2.00000
      3      -9.4992      2.00000
      4      -7.1772      2.00000
      5      -1.1304      0.00000
      6       1.0044      0.00000
      7       1.2902      0.00000
      8       1.6360      0.00000


--------------------------------------------------------------------------------------------------------


 soft charge-density along one line, spin component           1
         0         1         2         3         4         5         6         7         8         9
 total charge-density along one line
 
 pseudopotential strength for first ion, spin component:           1
 14.323  -0.640  -0.000   0.000  -0.120   0.000  -0.000   0.007
 -0.640   0.145   0.000  -0.000   0.014  -0.000   0.000  -0.002
 -0.000   0.000 -11.580  -0.000   0.000   0.595   0.000  -0.000
  0.000  -0.000  -0.000 -11.350  -0.000   0.000   0.558   0.000
 -0.120   0.014   0.000  -0.000 -11.487  -0.000   0.000   0.580
  0.000  -0.000   0.595   0.000  -0.000   0.026  -0.000   0.000
 -0.000   0.000   0.000   0.558   0.000  -0.000   0.037  -0.000
  0.007  -0.002  -0.000   0.000   0.580   0.000  -0.000   0.031
 total augmentation occupancy for first ion, spin component:           1
  1.960   0.736   0.000   0.000  -0.153   0.000   0.000  -0.019
  0.736   0.311   0.000   0.000   0.170   0.000   0.000   0.079
  0.000   0.000   1.369   0.000   0.000   0.566   0.000   0.000
  0.000   0.000   0.000   1.684   0.000   0.000   0.551   0.000
 -0.153   0.170   0.000   0.000   1.487   0.000   0.000   0.561
  0.000   0.000   0.566   0.000   0.000   0.234   0.000   0.000
  0.000   0.000   0.000   0.551   0.000   0.000   0.180   0.000
 -0.019   0.079   0.000   0.000   0.561   0.000   0.000   0.213


------------------------ aborting loop because EDIFF is reached ----------------------------------------


    CHARGE:  cpu time      0.0048: real time      0.0048
    FORLOC:  cpu time      0.0053: real time      0.0053
    FORNL :  cpu time      0.0013: real time      0.0013
    STRESS:  cpu time      0.0094: real time      0.0095
    FORHAR:  cpu time      0.0152: real time      0.0153
    MIXING:  cpu time      0.0033: real time      0.0033
    OFIELD:  cpu time      0.0001: real time      0.0001

  FORCE on cell =-STRESS in cart. coord.  units (eV):
  Direction    XX          YY          ZZ          XY          YZ          ZX
  --------------------------------------------------------------------------------------
  Alpha Z     0.44833     0.44833     0.44833
  Ewald      12.60061    69.29602   -55.29360    -0.00000    -0.00000     0.00000
  Hartree   137.17013   146.22131   126.27942    -0.00000    -0.00000    -0.00000
  E(xc)     -35.51771   -35.31316   -35.80473     0.00000     0.00000     0.00000
  Local    -252.01798  -301.23240  -195.86876    -0.00000    -0.00000     0.00000
  n-local   -38.73148   -37.80162   -39.18969     0.00000     0.00000     0.00000
  augment     5.83490     5.07571     6.97761     0.00000     0.00000     0.00000
  Kinetic   150.67519   135.73564   169.26023    -0.00000    -0.00000    -0.00000
  Fock        0.00000     0.00000     0.00000     0.00000     0.00000     0.00000
  -------------------------------------------------------------------------------------
  Total     -19.53799   -17.57017   -23.19119     0.00000     0.00000     0.00000
  in kB     -62.59022   -56.28629   -74.29329     0.00000     0.00000     0.00000
  external pressure =      -64.39 kB  Pullay stress =        0.00 kB


 VOLUME and BASIS-vectors are now :
 -----------------------------------------------------------------------------
  energy-cutoff  :      200.00
  volume of cell :      500.13
      direct lattice vectors                 reciprocal lattice vectors
     7.937700000  0.000000000  0.000000000     0.125981078  0.000000000  0.000000000
     0.000000000  7.937700000  0.000000000     0.000000000  0.125981078  0.000000000
     0.000000000  0.000000000  7.937700000     0.000000000  0.000000000  0.125981078

  length of vectors
     7.937700000  7.937700000  7.937700000     0.125981078  0.125981078  0.125981078


 FORCES acting on ions
    electron-ion (+dipol)            ewald-force                    non-local-force                 convergence-correction
 -----------------------------------------------------------------------------------------------
   0.655E+02 -.147E-14 0.106E-15   -.115E+03 0.142E-13 0.210E-16   0.494E+02 -.585E-24 0.416E-22   0.515E-03 -.248E-13 -.426E-13
   -.518E+02 0.731E+02 0.184E-05   0.574E+02 -.807E+02 0.134E-16   -.570E+01 0.793E+01 -.470E-24   -.207E-03 0.277E-03 -.469E-14
   -.518E+02 -.731E+02 -.307E-05   0.574E+02 0.807E+02 0.118E-16   -.570E+01 -.793E+01 -.373E-25   -.207E-03 -.277E-03 -.323E-14
 -----------------------------------------------------------------------------------------------
   -.381E+02 -.568E-13 -.123E-05   -.711E-14 0.000E+00 0.461E-16   0.380E+02 0.000E+00 0.411E-22   0.102E-03 -.237E-13 -.505E-13
 
 
 POSITION                                       TOTAL-FORCE (eV/Angst)
 -----------------------------------------------------------------------------------
      0.00000      0.00000      0.00000         0.133609      0.000000     -0.000000
      0.58210      7.18097      0.00000        -0.066804      0.394313      0.000000
      0.58210      0.75673      0.00000        -0.066804     -0.394313     -0.000000
 -----------------------------------------------------------------------------------
    total drift:                               -0.153667     -0.000000     -0.000001


--------------------------------------------------------------------------------------------------------



  FREE ENERGIE OF THE ION-ELECTRON SYSTEM (eV)
  ---------------------------------------------------
  free  energy   TOTEN  =       -14.30286637 eV

  energy  without entropy=      -14.30286637  energy(sigma->0) =      -14.30286637
 


--------------------------------------------------------------------------------------------------------


    POTLOK:  cpu time      0.0536: real time      0.0538


--------------------------------------------------------------------------------------------------------


 Quasi-Newton relaxation of ions (Broydens 2nd method)
  g(Force)  = 0.154E-01   g(Stress)= 0.000E+00

 Reset! Starting new Quasi-Newton update for ions 


--------------------------------------------------------------------------------------------------------


    WAVPRE:  cpu time      0.1771: real time      0.1854
    FEWALD:  cpu time      0.0003: real time      0.0004
    ORTHCH:  cpu time      0.0003: real time      0.0003
     LOOP+:  cpu time      1.1898: real time      1.2036


--------------------------------------- Iteration      2(   1)  ---------------------------------------


    POTLOK:  cpu time      0.0512: real time      0.0514
    SETDIJ:  cpu time      0.0023: real time      0.0023
     EDDAV:  cpu time      0.0192: real time      0.0193
       DOS:  cpu time      0.0001: real time      0.0001
    CHARGE:  cpu time      0.0057: real time      0.0057
    MIXING:  cpu time      0.0022: real time      0.0022
    --------------------------------------------
      LOOP:  cpu time      0.0808: real time      0.0811

 eigenvalue-minimisations  :    16
 total energy-change (2. order) : 0.1273244E-02  (-0.2836756E-01)
 number of electron       8.0000274 magnetization 
 augmentation part        0.5475671 magnetization 

 Broyden mixing:
  rms(total) = 0.29757E-01    rms(broyden)= 0.29290E-01
  rms(prec ) = 0.40598E-01
  weight for this iteration     100.00

 Free energy of the ion-electron system (eV)
  ---------------------------------------------------
  alpha Z        PSCENC =         0.44832783
  Ewald energy   TEWEN  =        30.09870501
  -Hartree energ DENC   =      -411.41303102
  -exchange      EXHF   =         0.00000000
  -V(xc)+E(xc)   XCENC  =        33.66032563
  PAW double counting   =       367.08503350     -368.11965322
  entropy T*S    EENTRO =        -0.00000000
  eigenvalues    EBANDS =      -114.88523705
  atomic energy  EATOM  =       448.82398315
  Solvation  Ediel_sol  =         0.00000000
  ---------------------------------------------------
  free energy    TOTEN  =       -14.30154617 eV

  energy without entropy =      -14.30154617  energy(sigma->0) =      -14.30154617


--------------------------------------------------------------------------------------------------------




--------------------------------------- Iteration      2(   2)  ---------------------------------------


    POTLOK:  cpu time      0.0550: real time      0.0554
    SETDIJ:  cpu time      0.0023: real time      0.0023
     EDDAV:  cpu time      0.0262: real time      0.0263
       DOS:  cpu time      0.0001: real time      0.0001
    CHARGE:  cpu time      0.0053: real time      0.0053
    MIXING:  cpu time      0.0020: real time      0.0020
    --------------------------------------------
      LOOP:  cpu time      0.0909: real time      0.0914

 eigenvalue-minimisations  :    24
 total energy-change (2. order) : 0.1989156E-02  (-0.7923885E-03)
 number of electron       8.0000273 magnetization 
 augmentation part        0.5462658 magnetization 

 Broyden mixing:
  rms(total) = 0.13032E-01    rms(broyden)= 0.12927E-01
  rms(prec ) = 0.16893E-01
  weight for this iteration     100.00

 eigenvalues of (default mixing * dielectric matrix)
  average eigenvalue GAMMA=   1.5723
  1.5723

 Free energy of the ion-electron system (eV)
  ---------------------------------------------------
  alpha Z        PSCENC =         0.44832783
  Ewald energy   TEWEN  =        30.09870501
  -Hartree energ DENC   =      -412.09887410
  -exchange      EXHF   =         0.00000000
  -V(xc)+E(xc)   XCENC  =        33.69994744
  PAW double counting   =       370.10179914     -371.14412659
  entropy T*S    EENTRO =        -0.00000000
  eigenvalues    EBANDS =      -114.22931891
  atomic energy  EATOM  =       448.82398315
  Solvation  Ediel_sol  =         0.00000000
  ---------------------------------------------------
  free energy    TOTEN  =       -14.29955702 eV

  energy without entropy =      -14.29955702  energy(sigma->0) =      -14.29955702


--------------------------------------------------------------------------------------------------------




--------------------------------------- Iteration      2(   3)  ---------------------------------------


    POTLOK:  cpu time      0.0523: real time      0.0526
    SETDIJ:  cpu time      0.0022: real time      0.0022
     EDDAV:  cpu time      0.0189: real time      0.0189
       DOS:  cpu time      0.0001: real time      0.0001
    CHARGE:  cpu time      0.0054: real time      0.0054
    MIXING:  cpu time      0.0021: real time      0.0021
    --------------------------------------------
      LOOP:  cpu time      0.0810: real time      0.0814

 eigenvalue-minimisations  :    16
 total energy-change (2. order) : 0.1219186E-03  (-0.1861948E-03)
 number of electron       8.0000272 magnetization 
 augmentation part        0.5450162 magnetization 

 Broyden mixing:
  rms(total) = 0.41604E-02    rms(broyden)= 0.41392E-02
  rms(prec ) = 0.56615E-02
  weight for this iteration     100.00

 eigenvalues of (default mixing * dielectric matrix)
  average eigenvalue GAMMA=   1.6016
  1.6016  1.6016

 Free energy of the ion-electron system (eV)
  ---------------------------------------------------
  alpha Z        PSCENC =         0.44832783
  Ewald energy   TEWEN  =        30.09870501
  -Hartree energ DENC   =      -412.42093363
  -exchange      EXHF   =         0.00000000
  -V(xc)+E(xc)   XCENC  =        33.71800265
  PAW double counting   =       372.18219145     -373.23196098
  entropy T*S    EENTRO =        -0.00000000
  eigenvalues    EBANDS =      -113.91775059
  atomic energy  EATOM  =       448.82398315
  Solvation  Ediel_sol  =         0.00000000
  ---------------------------------------------------
  free energy    TOTEN  =       -14.29943510 eV

  energy without entropy =      -14.29943510  energy(sigma->0) =      -14.29943510


--------------------------------------------------------------------------------------------------------




--------------------------------------- Iteration      2(   4)  ---------------------------------------


    POTLOK:  cpu time      0.0524: real time      0.0527
    SETDIJ:  cpu time      0.0021: real time      0.0021
     EDDAV:  cpu time      0.0331: real time      0.0332
       DOS:  cpu time      0.0001: real time      0.0001
    --------------------------------------------
      LOOP:  cpu time      0.0877: real time      0.0881

 eigenvalue-minimisations  :    32
 total energy-change (2. order) :-0.3367248E-04  (-0.3934584E-04)
 number of electron       8.0000272 magnetization 
 augmentation part        0.5450162 magnetization 

 Free energy of the ion-electron system (eV)
  ---------------------------------------------------
  alpha Z        PSCENC =         0.44832783
  Ewald energy   TEWEN  =        30.09870501
  -Hartree energ DENC   =      -412.27196790
  -exchange      EXHF   =         0.00000000
  -V(xc)+E(xc)   XCENC  =        33.70938090
  PAW double counting   =       372.29879699     -373.34982157
  entropy T*S    EENTRO =        -0.00000000
  eigenvalues    EBANDS =      -114.05687320
  atomic energy  EATOM  =       448.82398315
  Solvation  Ediel_sol  =         0.00000000
  ---------------------------------------------------
  free energy    TOTEN  =       -14.29946877 eV

  energy without entropy =      -14.29946877  energy(sigma->0) =      -14.29946877


--------------------------------------------------------------------------------------------------------




 average (electrostatic) potential at core
  the test charge radii are     0.7215  0.5201
  (the norm of the test charge is              0.9999)
       1 -84.7177       2 -44.9334       3 -44.9334
 
 
 
 E-fermi :  -6.7010     XC(G=0):  -1.1544     alpha+bet : -0.2602

 Fermi energy:        -6.7010155661

 k-point     1 :       0.0000    0.0000    0.0000
  band No.  band energies     occupation 
      1     -26.7082      2.00000
      2     -13.4960      2.00000
      3      -9.6002      2.00000
      4      -7.2240      2.00000
      5      -1.0869      0.00000
      6       1.0237      0.00000
      7       1.3448      0.00000
      8       1.6528      0.00000


--------------------------------------------------------------------------------------------------------


 soft charge-density along one line, spin component           1
         0         1         2         3         4         5         6         7         8         9
 total charge-density along one line
 
 pseudopotential strength for first ion, spin component:           1
 14.327  -0.640  -0.000  -0.000  -0.126   0.000   0.000   0.007
 -0.640   0.145   0.000   0.000   0.015  -0.000  -0.000  -0.003
 -0.000   0.000 -11.586   0.000   0.000   0.594  -0.000  -0.000
 -0.000   0.000   0.000 -11.349  -0.000  -0.000   0.556   0.000
 -0.126   0.015   0.000  -0.000 -11.493  -0.000   0.000   0.580
  0.000  -0.000   0.594  -0.000  -0.000   0.027   0.000   0.000
  0.000  -0.000  -0.000   0.556   0.000   0.000   0.038  -0.000
  0.007  -0.003  -0.000   0.000   0.580   0.000  -0.000   0.031
 total augmentation occupancy for first ion, spin component:           1
  1.959   0.742   0.000   0.000  -0.147   0.000   0.000  -0.017
  0.742   0.317   0.000   0.000   0.177   0.000   0.000   0.082
  0.000   0.000   1.388   0.000   0.000   0.571   0.000   0.000
  0.000   0.000   0.000   1.684   0.000   0.000   0.552   0.000
 -0.147   0.177   0.000   0.000   1.500   0.000   0.000   0.566
  0.000   0.000   0.571   0.000   0.000   0.235   0.000   0.000
  0.000   0.000   0.000   0.552   0.000   0.000   0.181   0.000
 -0.017   0.082   0.000   0.000   0.566   0.000   0.000   0.214


------------------------ aborting loop because EDIFF is reached ----------------------------------------


    CHARGE:  cpu time      0.0056: real time      0.0056
    FORLOC:  cpu time      0.0047: real time      0.0047
    FORNL :  cpu time      0.0012: real time      0.0012
    STRESS:  cpu time      0.0092: real time      0.0093
    FORHAR:  cpu time      0.0152: real time      0.0153
    MIXING:  cpu time      0.0024: real time      0.0024
    OFIELD:  cpu time      0.0001: real time      0.0001

  FORCE on cell =-STRESS in cart. coord.  units (eV):
  Direction    XX          YY          ZZ          XY          YZ          ZX
  --------------------------------------------------------------------------------------
  Alpha Z     0.44833     0.44833     0.44833
  Ewald      15.55009    69.82829   -55.27971    -0.00000     0.00000     0.00000
  Hartree   138.40774   146.71944   127.32294    -0.00000    -0.00000    -0.00000
  E(xc)     -35.65493   -35.47015   -35.94549    -0.00000     0.00000     0.00000
  Local    -255.32928  -301.52113  -197.29763    -0.00000    -0.00000    -0.00000
  n-local   -39.22607   -38.25022   -39.48640    -0.00000    -0.00000    -0.00000
  augment     5.88022     5.13350     7.04469     0.00000     0.00000     0.00000
  Kinetic   151.20003   137.12119   169.93513    -0.00000    -0.00000     0.00000
  Fock        0.00000     0.00000     0.00000     0.00000     0.00000     0.00000
  -------------------------------------------------------------------------------------
  Total     -18.72388   -15.99076   -23.25813     0.00000     0.00000     0.00000
  in kB     -59.98221   -51.22661   -74.50774     0.00000     0.00000     0.00000
  external pressure =      -61.91 kB  Pullay stress =        0.00 kB


 VOLUME and BASIS-vectors are now :
 -----------------------------------------------------------------------------
  energy-cutoff  :      200.00
  volume of cell :      500.13
      direct lattice vectors                 reciprocal lattice vectors
     7.937700000  0.000000000  0.000000000     0.125981078  0.000000000  0.000000000
     0.000000000  7.937700000  0.000000000     0.000000000  0.125981078  0.000000000
     0.000000000  0.000000000  7.937700000     0.000000000  0.000000000  0.125981078

  length of vectors
     7.937700000  7.937700000  7.937700000     0.125981078  0.125981078  0.125981078


 FORCES acting on ions
    electron-ion (+dipol)            ewald-force                    non-local-force                 convergence-correction
 -----------------------------------------------------------------------------------------------
   0.690E+02 -.121E-14 -.175E-14   -.120E+03 0.000E+00 0.175E-16   0.505E+02 0.197E-23 -.447E-22   -.152E-01 -.226E-13 -.269E-13
   -.537E+02 0.743E+02 0.188E-05   0.602E+02 -.832E+02 0.144E-16   -.617E+01 0.835E+01 -.156E-22   0.120E-01 -.124E-01 -.286E-14
   -.537E+02 -.743E+02 -.285E-05   0.602E+02 0.832E+02 0.142E-16   -.617E+01 -.835E+01 0.102E-22   0.120E-01 0.124E-01 -.189E-14
 -----------------------------------------------------------------------------------------------
   -.384E+02 0.284E-13 -.965E-06   0.000E+00 0.000E+00 0.461E-16   0.382E+02 0.000E+00 -.501E-22   0.875E-02 -.209E-13 -.317E-13
 
 
 POSITION                                       TOTAL-FORCE (eV/Angst)
 -----------------------------------------------------------------------------------
      0.00000      0.00000      0.00000        -0.950287     -0.000000      0.000000
      0.57888      7.20000      0.00000         0.475143     -0.534114      0.000000
      0.57888      0.73770      0.00000         0.475143      0.534114     -0.000000
 -----------------------------------------------------------------------------------
    total drift:                               -0.170415      0.000000     -0.000001


--------------------------------------------------------------------------------------------------------



  FREE ENERGIE OF THE ION-ELECTRON SYSTEM (eV)
  ---------------------------------------------------
  free  energy   TOTEN  =       -14.29946877 eV

  energy  without entropy=      -14.29946877  energy(sigma->0) =      -14.29946877
 
 d Force =-0.3975388E-02[-0.234E-01, 0.154E-01]  d Energy =-0.3397604E-02-0.578E-03
 d Force =-0.3496017E+01[-0.355E+01,-0.344E+01]  d Ewald  =-0.3495637E+01-0.380E-03


--------------------------------------------------------------------------------------------------------


    POTLOK:  cpu time      0.0574: real time      0.0576


--------------------------------------------------------------------------------------------------------


 Quasi-Newton relaxation of ions (Broydens 2nd method)
  g(Force)  = 0.493E-01   g(Stress)= 0.000E+00

 retain information from N=  1 steps
 eigenvalues of (default step * inverse Hessian matrix)
  average eigenvalue of G=   0.3481
 eigenvalue spectrum of G is  0.3481


--------------------------------------------------------------------------------------------------------


    WAVPRE:  cpu time      0.0140: real time      0.0143
    FEWALD:  cpu time      0.0002: real time      0.0002
    ORTHCH:  cpu time      0.0003: real time      0.0003
     LOOP+:  cpu time      0.4537: real time      0.4568


--------------------------------------- Iteration      3(   1)  ---------------------------------------


    POTLOK:  cpu time      0.0543: real time      0.0546
    SETDIJ:  cpu time      0.0021: real time      0.0021
     EDDAV:  cpu time      0.0172: real time      0.0173
       DOS:  cpu time      0.0001: real time      0.0001
    CHARGE:  cpu time      0.0053: real time      0.0054
    MIXING:  cpu time      0.0021: real time      0.0021
    --------------------------------------------
      LOOP:  cpu time      0.0813: real time      0.0816

 eigenvalue-minimisations  :    16
 total energy-change (2. order) :-0.8687742E-02  (-0.1237708E-01)
 number of electron       8.0000274 magnetization 
 augmentation part        0.5371329 magnetization 

 Broyden mixing:
  rms(total) = 0.22427E-01    rms(broyden)= 0.22168E-01
  rms(prec ) = 0.30784E-01
  weight for this iteration     100.00

 Free energy of the ion-electron system (eV)
  ---------------------------------------------------
  alpha Z        PSCENC =         0.44832783
  Ewald energy   TEWEN  =        27.67619330
  -Hartree energ DENC   =      -411.15284493
  -exchange      EXHF   =         0.00000000
  -V(xc)+E(xc)   XCENC  =        33.65392784
  PAW double counting   =       372.84151579     -373.89453667
  entropy T*S    EENTRO =        -0.00000000
  eigenvalues    EBANDS =      -112.70468915
  atomic energy  EATOM  =       448.82398315
  Solvation  Ediel_sol  =         0.00000000
  ---------------------------------------------------
  free energy    TOTEN  =       -14.30812284 eV

  energy without entropy =      -14.30812284  energy(sigma->0) =      -14.30812284


--------------------------------------------------------------------------------------------------------




--------------------------------------- Iteration      3(   2)  ---------------------------------------


    POTLOK:  cpu time      0.0507: real time      0.0510
    SETDIJ:  cpu time      0.0021: real time      0.0021
     EDDAV:  cpu time      0.0225: real time      0.0226
       DOS:  cpu time      0.0001: real time      0.0001
    CHARGE:  cpu time      0.0052: real time      0.0053
    MIXING:  cpu time      0.0021: real time      0.0021
    --------------------------------------------
      LOOP:  cpu time      0.0828: real time      0.0831

 eigenvalue-minimisations  :    24
 total energy-change (2. order) : 0.1202752E-02  (-0.4562928E-03)
 number of electron       8.0000275 magnetization 
 augmentation part        0.5384235 magnetization 

 Broyden mixing:
  rms(total) = 0.84772E-02    rms(broyden)= 0.83997E-02
  rms(prec ) = 0.10696E-01
  weight for this iteration     100.00

 eigenvalues of (default mixing * dielectric matrix)
  average eigenvalue GAMMA=   1.4367
  1.4367

 Free energy of the ion-electron system (eV)
  ---------------------------------------------------
  alpha Z        PSCENC =         0.44832783
  Ewald energy   TEWEN  =        27.67619330
  -Hartree energ DENC   =      -410.61653197
  -exchange      EXHF   =         0.00000000
  -V(xc)+E(xc)   XCENC  =        33.62271646
  PAW double counting   =       370.57439253     -371.62083436
  entropy T*S    EENTRO =        -0.00000000
  eigenvalues    EBANDS =      -113.21516703
  atomic energy  EATOM  =       448.82398315
  Solvation  Ediel_sol  =         0.00000000
  ---------------------------------------------------
  free energy    TOTEN  =       -14.30692009 eV

  energy without entropy =      -14.30692009  energy(sigma->0) =      -14.30692009


--------------------------------------------------------------------------------------------------------




--------------------------------------- Iteration      3(   3)  ---------------------------------------


    POTLOK:  cpu time      0.0490: real time      0.0493
    SETDIJ:  cpu time      0.0020: real time      0.0021
     EDDAV:  cpu time      0.0172: real time      0.0172
       DOS:  cpu time      0.0001: real time      0.0001
    --------------------------------------------
      LOOP:  cpu time      0.0683: real time      0.0686

 eigenvalue-minimisations  :    16
 total energy-change (2. order) : 0.4910772E-04  (-0.6600294E-04)
 number of electron       8.0000275 magnetization 
 augmentation part        0.5384235 magnetization 

 Free energy of the ion-electron system (eV)
  ---------------------------------------------------
  alpha Z        PSCENC =         0.44832783
  Ewald energy   TEWEN  =        27.67619330
  -Hartree energ DENC   =      -410.43090262
  -exchange      EXHF   =         0.00000000
  -V(xc)+E(xc)   XCENC  =        33.61221690
  PAW double counting   =       369.29414413     -370.33524338
  entropy T*S    EENTRO =        -0.00000000
  eigenvalues    EBANDS =      -113.39559030
  atomic energy  EATOM  =       448.82398315
  Solvation  Ediel_sol  =         0.00000000
  ---------------------------------------------------
  free energy    TOTEN  =       -14.30687098 eV

  energy without entropy =      -14.30687098  energy(sigma->0) =      -14.30687098


--------------------------------------------------------------------------------------------------------




 average (electrostatic) potential at core
  the test charge radii are     0.7215  0.5201
  (the norm of the test charge is              0.9999)
       1 -84.7045       2 -44.7084       3 -44.7084
 
 
 
 E-fermi :  -6.6582     XC(G=0):  -1.1468     alpha+bet : -0.2602

 Fermi energy:        -6.6582490918

 k-point     1 :       0.0000    0.0000    0.0000
  band No.  band energies     occupation 
      1     -26.5646      2.00000
      2     -13.3534      2.00000
      3      -9.5799      2.00000
      4      -7.1998      2.00000
      5      -1.1129      0.00000
      6       1.0145      0.00000
      7       1.3099      0.00000
      8       1.6534      0.00000


--------------------------------------------------------------------------------------------------------


 soft charge-density along one line, spin component           1
         0         1         2         3         4         5         6         7         8         9
 total charge-density along one line
 
 pseudopotential strength for first ion, spin component:           1
 14.326  -0.640   0.000  -0.000  -0.122  -0.000   0.000   0.007
 -0.640   0.145  -0.000   0.000   0.015   0.000  -0.000  -0.002
  0.000  -0.000 -11.581   0.000  -0.000   0.595  -0.000   0.000
 -0.000   0.000   0.000 -11.352  -0.000  -0.000   0.558   0.000
 -0.122   0.015  -0.000  -0.000 -11.492   0.000   0.000   0.581
 -0.000   0.000   0.595  -0.000   0.000   0.026   0.000  -0.000
  0.000  -0.000  -0.000   0.558   0.000   0.000   0.037  -0.000
  0.007  -0.002   0.000   0.000   0.581  -0.000  -0.000   0.030
 total augmentation occupancy for first ion, spin component:           1
  1.960   0.737   0.000   0.000  -0.152   0.000   0.000  -0.018
  0.737   0.314   0.000   0.000   0.173   0.000   0.000   0.081
  0.000   0.000   1.374   0.000   0.000   0.567   0.000   0.000
  0.000   0.000   0.000   1.683   0.000   0.000   0.551   0.000
 -0.152   0.173   0.000   0.000   1.487   0.000   0.000   0.563
  0.000   0.000   0.567   0.000   0.000   0.234   0.000   0.000
  0.000   0.000   0.000   0.551   0.000   0.000   0.180   0.000
 -0.018   0.081   0.000   0.000   0.563   0.000   0.000   0.214


------------------------ aborting loop because EDIFF is reached ----------------------------------------


    CHARGE:  cpu time      0.0052: real time      0.0052
    FORLOC:  cpu time      0.0048: real time      0.0048
    FORNL :  cpu time      0.0012: real time      0.0012
    STRESS:  cpu time      0.0092: real time      0.0092
    FORHAR:  cpu time      0.0141: real time      0.0141
    MIXING:  cpu time      0.0021: real time      0.0021
    OFIELD:  cpu time      0.0000: real time      0.0000

  FORCE on cell =-STRESS in cart. coord.  units (eV):
  Direction    XX          YY          ZZ          XY          YZ          ZX
  --------------------------------------------------------------------------------------
  Alpha Z     0.44833     0.44833     0.44833
  Ewald      14.80906    68.15597   -55.28888    -0.00000    -0.00000    -0.00000
  Hartree   137.78814   146.13679   126.60202    -0.00000    -0.00000    -0.00000
  E(xc)     -35.55177   -35.36568   -35.84668    -0.00000     0.00000     0.00000
  Local    -254.22890  -300.11915  -196.33357    -0.00000    -0.00000     0.00000
  n-local   -38.88588   -37.90811   -39.26994     0.00000     0.00000     0.00000
  augment     5.82912     5.10276     6.99257     0.00000     0.00000    -0.00000
  Kinetic   150.50716   136.51113   169.47793    -0.00000     0.00000     0.00001
  Fock        0.00000     0.00000     0.00000     0.00000     0.00000     0.00000
  -------------------------------------------------------------------------------------
  Total     -19.28474   -17.03796   -23.21821     0.00000     0.00000     0.00000
  in kB     -61.77893   -54.58133   -74.37984     0.00000     0.00000     0.00000
  external pressure =      -63.58 kB  Pullay stress =        0.00 kB


 VOLUME and BASIS-vectors are now :
 -----------------------------------------------------------------------------
  energy-cutoff  :      200.00
  volume of cell :      500.13
[...]
 number of electron       8.0000277 magnetization 
 augmentation part        0.5387007 magnetization 

 Free energy of the ion-electron system (eV)
  ---------------------------------------------------
  alpha Z        PSCENC =         0.44832783
  Ewald energy   TEWEN  =        27.83055129
  -Hartree energ DENC   =      -410.56845514
  -exchange      EXHF   =         0.00000000
  -V(xc)+E(xc)   XCENC  =        33.61977142
  PAW double counting   =       368.89482895     -369.93260514
  entropy T*S    EENTRO =        -0.00000000
  eigenvalues    EBANDS =      -113.42331426
  atomic energy  EATOM  =       448.82398315
  Solvation  Ediel_sol  =         0.00000000
  ---------------------------------------------------
  free energy    TOTEN  =       -14.30691191 eV

  energy without entropy =      -14.30691191  energy(sigma->0) =      -14.30691191


--------------------------------------------------------------------------------------------------------




 average (electrostatic) potential at core
  the test charge radii are     0.7215  0.5201
  (the norm of the test charge is              0.9999)
       1 -84.7001       2 -44.7274       3 -44.7274
 
 
 
 E-fermi :  -6.6663     XC(G=0):  -1.1538     alpha+bet : -0.2602

 Fermi energy:        -6.6663418624

 k-point     1 :       0.0000    0.0000    0.0000
  band No.  band energies     occupation 
      1     -26.5821      2.00000
      2     -13.3190      2.00000
      3      -9.6135      2.00000
      4      -7.1971      2.00000
      5      -1.1182      0.00000
      6       1.0131      0.00000
      7       1.3097      0.00000
      8       1.6493      0.00000


--------------------------------------------------------------------------------------------------------


 soft charge-density along one line, spin component           1
         0         1         2         3         4         5         6         7         8         9
 total charge-density along one line
 
 pseudopotential strength for first ion, spin component:           1
 14.324  -0.640  -0.000  -0.000  -0.123   0.000   0.000   0.007
 -0.640   0.145   0.000   0.000   0.015  -0.000  -0.000  -0.003
 -0.000   0.000 -11.579   0.000  -0.000   0.594  -0.000   0.000
 -0.000   0.000   0.000 -11.351  -0.000  -0.000   0.558   0.000
 -0.123   0.015  -0.000  -0.000 -11.494   0.000   0.000   0.581
  0.000  -0.000   0.594  -0.000   0.000   0.026   0.000  -0.000
  0.000  -0.000  -0.000   0.558   0.000   0.000   0.037  -0.000
  0.007  -0.003   0.000   0.000   0.581  -0.000  -0.000   0.030
 total augmentation occupancy for first ion, spin component:           1
  1.962   0.736   0.000   0.000  -0.152   0.000   0.000  -0.018
  0.736   0.313   0.000   0.000   0.175   0.000   0.000   0.082
  0.000   0.000   1.376   0.000   0.000   0.566   0.000   0.000
  0.000   0.000   0.000   1.684   0.000   0.000   0.551   0.000
 -0.152   0.175   0.000   0.000   1.486   0.000   0.000   0.563
  0.000   0.000   0.566   0.000   0.000   0.233   0.000   0.000
  0.000   0.000   0.000   0.551   0.000   0.000   0.180   0.000
 -0.018   0.082   0.000   0.000   0.563   0.000   0.000   0.214


------------------------ aborting loop because EDIFF is reached ----------------------------------------


    CHARGE:  cpu time      0.0052: real time      0.0053
    FORLOC:  cpu time      0.0048: real time      0.0048
    FORNL :  cpu time      0.0011: real time      0.0011
    STRESS:  cpu time      0.0089: real time      0.0090
    FORHAR:  cpu time      0.0138: real time      0.0138
    MIXING:  cpu time      0.0023: real time      0.0023
    OFIELD:  cpu time      0.0000: real time      0.0000

  FORCE on cell =-STRESS in cart. coord.  units (eV):
  Direction    XX          YY          ZZ          XY          YZ          ZX
  --------------------------------------------------------------------------------------
  Alpha Z     0.44833     0.44833     0.44833
  Ewald      16.00285    67.11560   -55.28794    -0.00000    -0.00000    -0.00000
  Hartree   138.00392   145.94462   126.60726    -0.00000    -0.00000    -0.00000
  E(xc)     -35.55253   -35.37922   -35.85365    -0.00000     0.00000     0.00000
  Local    -255.32155  -299.15621  -196.38346    -0.00000    -0.00000    -0.00000
  n-local   -38.89462   -37.88480   -39.25811     0.00000    -0.00000    -0.00000
  augment     5.80962     5.10739     6.98935     0.00000     0.00000    -0.00000
  Kinetic   150.22951   136.80798   169.50176    -0.00000     0.00000     0.00001
  Fock        0.00000     0.00000     0.00000     0.00000     0.00000     0.00000
  -------------------------------------------------------------------------------------
  Total     -19.27448   -16.99631   -23.23646     0.00000     0.00000     0.00000
  in kB     -61.74605   -54.44790   -74.43832     0.00000     0.00000     0.00000
  external pressure =      -63.54 kB  Pullay stress =        0.00 kB


 VOLUME and BASIS-vectors are now :
 -----------------------------------------------------------------------------
  energy-cutoff  :      200.00
  volume of cell :      500.13
      direct lattice vectors                 reciprocal lattice vectors
     7.937700000  0.000000000  0.000000000     0.125981078  0.000000000  0.000000000
     0.000000000  7.937700000  0.000000000     0.000000000  0.125981078  0.000000000
     0.000000000  0.000000000  7.937700000     0.000000000  0.000000000  0.125981078

  length of vectors
     7.937700000  7.937700000  7.937700000     0.125981078  0.125981078  0.125981078


 FORCES acting on ions
    electron-ion (+dipol)            ewald-force                    non-local-force                 convergence-correction
 -----------------------------------------------------------------------------------------------
   0.683E+02 -.281E-14 0.768E-16   -.119E+03 -.284E-13 0.303E-16   0.503E+02 0.282E-25 -.228E-21   -.753E-01 -.423E-13 -.375E-13
   -.534E+02 0.728E+02 0.172E-05   0.593E+02 -.808E+02 0.941E-17   -.598E+01 0.797E+01 -.689E-23   -.290E-02 -.244E-02 -.401E-14
   -.534E+02 -.728E+02 -.341E-05   0.593E+02 0.808E+02 0.644E-17   -.598E+01 -.797E+01 -.628E-23   -.290E-02 0.244E-02 -.253E-14
 -----------------------------------------------------------------------------------------------
   -.384E+02 -.426E-13 -.169E-05   -.711E-14 0.000E+00 0.461E-16   0.383E+02 0.000E+00 -.241E-21   -.811E-01 -.431E-13 -.440E-13
 
 
 POSITION                                       TOTAL-FORCE (eV/Angst)
 -----------------------------------------------------------------------------------
      0.00000      0.00000      0.00000        -0.046439     -0.000000     -0.000000
      0.59133      7.19525      0.00000         0.023219     -0.012891      0.000000
      0.59133      0.74245      0.00000         0.023219      0.012891     -0.000000
 -----------------------------------------------------------------------------------
    total drift:                               -0.167134     -0.000000     -0.000002


--------------------------------------------------------------------------------------------------------



  FREE ENERGIE OF THE ION-ELECTRON SYSTEM (eV)
  ---------------------------------------------------
  free  energy   TOTEN  =       -14.30691191 eV

  energy  without entropy=      -14.30691191  energy(sigma->0) =      -14.30691191
 
 d Force = 0.4903515E-03[ 0.991E-04, 0.882E-03]  d Energy = 0.4092680E-04 0.449E-03
 d Force =-0.1543557E+00[-0.151E+00,-0.158E+00]  d Ewald  =-0.1543580E+00 0.230E-05


--------------------------------------------------------------------------------------------------------


    POTLOK:  cpu time      0.0519: real time      0.0520


--------------------------------------------------------------------------------------------------------


 Quasi-Newton relaxation of ions (Broydens 2nd method)
  g(Force)  = 0.681E-04   g(Stress)= 0.000E+00

 retain information from N=  2 steps
 eigenvalues of (default step * inverse Hessian matrix)
  average eigenvalue of G=   0.4225
 eigenvalue spectrum of G is  0.4225  0.4225


--------------------------------------------------------------------------------------------------------


    WAVPRE:  cpu time      0.0139: real time      0.0142
    FEWALD:  cpu time      0.0002: real time      0.0002
    ORTHCH:  cpu time      0.0003: real time      0.0003
     LOOP+:  cpu time      0.2479: real time      0.2494


--------------------------------------- Iteration      5(   1)  ---------------------------------------


    POTLOK:  cpu time      0.0495: real time      0.0498
    SETDIJ:  cpu time      0.0021: real time      0.0021
     EDDAV:  cpu time      0.0297: real time      0.0301
       DOS:  cpu time      0.0001: real time      0.0001
    CHARGE:  cpu time      0.0053: real time      0.0054
    MIXING:  cpu time      0.0020: real time      0.0020
    --------------------------------------------
      LOOP:  cpu time      0.0889: real time      0.0896

 eigenvalue-minimisations  :    32
 total energy-change (2. order) : 0.8727766E-04  (-0.9618494E-04)
 number of electron       8.0000278 magnetization 
 augmentation part        0.5384881 magnetization 

 Broyden mixing:
  rms(total) = 0.13452E-02    rms(broyden)= 0.12950E-02
  rms(prec ) = 0.19184E-02
  weight for this iteration     100.00

 Free energy of the ion-electron system (eV)
  ---------------------------------------------------
  alpha Z        PSCENC =         0.44832783
  Ewald energy   TEWEN  =        27.74342818
  -Hartree energ DENC   =      -410.51835759
  -exchange      EXHF   =         0.00000000
  -V(xc)+E(xc)   XCENC  =        33.61712600
  PAW double counting   =       368.82520225     -369.86206866
  entropy T*S    EENTRO =        -0.00000000
  eigenvalues    EBANDS =      -113.38445070
  atomic energy  EATOM  =       448.82398315
  Solvation  Ediel_sol  =         0.00000000
  ---------------------------------------------------
  free energy    TOTEN  =       -14.30680953 eV

  energy without entropy =      -14.30680953  energy(sigma->0) =      -14.30680953


--------------------------------------------------------------------------------------------------------




--------------------------------------- Iteration      5(   2)  ---------------------------------------


    POTLOK:  cpu time      0.0519: real time      0.0522
    SETDIJ:  cpu time      0.0022: real time      0.0022
     EDDAV:  cpu time      0.0114: real time      0.0115
       DOS:  cpu time      0.0001: real time      0.0001
    --------------------------------------------
      LOOP:  cpu time      0.0656: real time      0.0659

 eigenvalue-minimisations  :     8
 total energy-change (2. order) :-0.1699924E-05  (-0.4617703E-06)
 number of electron       8.0000278 magnetization 
 augmentation part        0.5384881 magnetization 

 Free energy of the ion-electron system (eV)
  ---------------------------------------------------
  alpha Z        PSCENC =         0.44832783
  Ewald energy   TEWEN  =        27.74342818
  -Hartree energ DENC   =      -410.50115118
  -exchange      EXHF   =         0.00000000
  -V(xc)+E(xc)   XCENC  =        33.61608370
  PAW double counting   =       368.73748812     -369.77385783
  entropy T*S    EENTRO =        -0.00000000
  eigenvalues    EBANDS =      -113.40111320
  atomic energy  EATOM  =       448.82398315
  Solvation  Ediel_sol  =         0.00000000
  ---------------------------------------------------
  free energy    TOTEN  =       -14.30681123 eV

  energy without entropy =      -14.30681123  energy(sigma->0) =      -14.30681123


--------------------------------------------------------------------------------------------------------




 average (electrostatic) potential at core
  the test charge radii are     0.7215  0.5201
  (the norm of the test charge is              0.9999)
       1 -84.7012       2 -44.7162       3 -44.7162
 
 
 
 E-fermi :  -6.6658     XC(G=0):  -1.1551     alpha+bet : -0.2602

 Fermi energy:        -6.6658377716

 k-point     1 :       0.0000    0.0000    0.0000
  band No.  band energies     occupation 
      1     -26.5775      2.00000
      2     -13.3047      2.00000
      3      -9.6220      2.00000
      4      -7.1965      2.00000
      5      -1.1199      0.00000
      6       1.0121      0.00000
      7       1.3082      0.00000
      8       1.6480      0.00000


--------------------------------------------------------------------------------------------------------


 soft charge-density along one line, spin component           1
         0         1         2         3         4         5         6         7         8         9
 total charge-density along one line
 
 pseudopotential strength for first ion, spin component:           1
 14.324  -0.640  -0.000   0.000  -0.123   0.000  -0.000   0.007
 -0.640   0.145   0.000  -0.000   0.015  -0.000   0.000  -0.003
 -0.000   0.000 -11.579   0.000  -0.000   0.595  -0.000   0.000
  0.000  -0.000   0.000 -11.351   0.000  -0.000   0.558  -0.000
 -0.123   0.015  -0.000   0.000 -11.494   0.000  -0.000   0.581
  0.000  -0.000   0.595  -0.000   0.000   0.026   0.000  -0.000
 -0.000   0.000  -0.000   0.558  -0.000   0.000   0.037   0.000
  0.007  -0.003   0.000  -0.000   0.581  -0.000   0.000   0.030
 total augmentation occupancy for first ion, spin component:           1
  1.962   0.737   0.000   0.000  -0.152   0.000   0.000  -0.018
  0.737   0.313   0.000   0.000   0.175   0.000   0.000   0.081
  0.000   0.000   1.375   0.000   0.000   0.566   0.000   0.000
  0.000   0.000   0.000   1.684   0.000   0.000   0.551   0.000
 -0.152   0.175   0.000   0.000   1.486   0.000   0.000   0.563
  0.000   0.000   0.566   0.000   0.000   0.233   0.000   0.000
  0.000   0.000   0.000   0.551   0.000   0.000   0.180   0.000
 -0.018   0.081   0.000   0.000   0.563   0.000   0.000   0.214


------------------------ aborting loop because EDIFF is reached ----------------------------------------


    CHARGE:  cpu time      0.0052: real time      0.0052
    FORLOC:  cpu time      0.0048: real time      0.0048
    FORNL :  cpu time      0.0012: real time      0.0013
    STRESS:  cpu time      0.0091: real time      0.0091
    FORHAR:  cpu time      0.0139: real time      0.0140
    MIXING:  cpu time      0.0020: real time      0.0020
    OFIELD:  cpu time      0.0000: real time      0.0000

  FORCE on cell =-STRESS in cart. coord.  units (eV):
  Direction    XX          YY          ZZ          XY          YZ          ZX
  --------------------------------------------------------------------------------------
  Alpha Z     0.44833     0.44833     0.44833
  Ewald      16.20151    66.83008   -55.28821    -0.00000     0.00000    -0.00000
  Hartree   138.02300   145.88474   126.58145    -0.00000    -0.00000    -0.00000
  E(xc)     -35.54829   -35.37576   -35.85004    -0.00000     0.00000    -0.00000
  Local    -255.48852  -298.89736  -196.34973    -0.00000    -0.00000     0.00000
  n-local   -38.88355   -37.86798   -39.24910     0.00000     0.00000     0.00000
  augment     5.80466     5.10748     6.98716    -0.00000     0.00000     0.00000
  Kinetic   150.14804   136.84642   169.48943     0.00000    -0.00000    -0.00000
  Fock        0.00000     0.00000     0.00000     0.00000     0.00000     0.00000
  -------------------------------------------------------------------------------------
  Total     -19.29481   -17.02405   -23.23071     0.00000     0.00000     0.00000
  in kB     -61.81118   -54.53677   -74.41989     0.00000     0.00000     0.00000
  external pressure =      -63.59 kB  Pullay stress =        0.00 kB


 VOLUME and BASIS-vectors are now :
 -----------------------------------------------------------------------------
  energy-cutoff  :      200.00
  volume of cell :      500.13
      direct lattice vectors                 reciprocal lattice vectors
     7.937700000  0.000000000  0.000000000     0.125981078  0.000000000  0.000000000
     0.000000000  7.937700000  0.000000000     0.000000000  0.125981078  0.000000000
     0.000000000  0.000000000  7.937700000     0.000000000  0.000000000  0.125981078

  length of vectors
     7.937700000  7.937700000  7.937700000     0.125981078  0.125981078  0.125981078


 FORCES acting on ions
    electron-ion (+dipol)            ewald-force                    non-local-force                 convergence-correction
 -----------------------------------------------------------------------------------------------
   0.684E+02 -.126E-14 -.124E-14   -.119E+03 0.284E-13 0.630E-16   0.503E+02 0.704E-25 0.765E-23   0.550E-02 -.190E-13 -.129E-12
   -.534E+02 0.727E+02 0.169E-05   0.594E+02 -.807E+02 -.970E-17   -.598E+01 0.795E+01 0.289E-23   -.292E-03 0.717E-03 -.130E-13
   -.534E+02 -.727E+02 -.343E-05   0.594E+02 0.807E+02 -.712E-17   -.598E+01 -.795E+01 0.188E-23   -.292E-03 -.717E-03 -.109E-13
 -----------------------------------------------------------------------------------------------
   -.385E+02 0.284E-13 -.174E-05   -.711E-14 0.000E+00 0.461E-16   0.383E+02 0.888E-15 0.124E-22   0.491E-02 -.175E-13 -.153E-12
 
 
 POSITION                                       TOTAL-FORCE (eV/Angst)
 -----------------------------------------------------------------------------------
      0.00000      0.00000      0.00000         0.007330      0.000000      0.000000
      0.59261      7.19564      0.00000        -0.003665     -0.000683     -0.000000
      0.59261      0.74206      0.00000        -0.003665      0.000683      0.000000
 -----------------------------------------------------------------------------------
    total drift:                               -0.154237      0.000000     -0.000002


--------------------------------------------------------------------------------------------------------



  FREE ENERGIE OF THE ION-ELECTRON SYSTEM (eV)
  ---------------------------------------------------
  free  energy   TOTEN  =       -14.30681123 eV

  energy  without entropy=      -14.30681123  energy(sigma->0) =      -14.30681123
 
 d Force = 0.1952042E-04[-0.988E-05, 0.489E-04]  d Energy =-0.1006726E-03 0.120E-03
 d Force = 0.8712301E-01[ 0.872E-01, 0.870E-01]  d Ewald  = 0.8712312E-01-0.108E-06


--------------------------------------------------------------------------------------------------------


    POTLOK:  cpu time      0.0547: real time      0.0548


--------------------------------------------------------------------------------------------------------


 Quasi-Newton relaxation of ions (Broydens 2nd method)
  g(Force)  = 0.134E-05   g(Stress)= 0.000E+00

 retain information from N=  2 steps
 eigenvalues of (default step * inverse Hessian matrix)
  average eigenvalue of G=   1.2388
 eigenvalue spectrum of G is  1.2388  1.2388


--------------------------------------------------------------------------------------------------------


  
 reached required accuracy - stopping structural energy minimisation
 writing wavefunctions
     LOOP+:  cpu time      0.2501: real time      0.2546
    4ORBIT:  cpu time      0.0000: real time      0.0000

 total amount of memory used by VASP MPI-rank0    47657. kBytes
=======================================================================

   base      :      30000. kBytes
   nonl-proj :        280. kBytes
   fftplans  :       6192. kBytes
   grid      :      10976. kBytes
   one-center:          4. kBytes
   wavefun   :        205. kBytes
 
  
  
 General timing and accounting informations for this job:
 ========================================================
  
                  Total CPU time used (sec):        2.895
                            User time (sec):        2.630
                          System time (sec):        0.265
                         Elapsed time (sec):        3.544
  
                   Maximum memory used (kb):      105088.
                   Average memory used (kb):          N/A
  
                          Minor page faults:        39372
                          Major page faults:            0
                 Voluntary context switches:         1047
