unknown system                          
           1
     7.937700    0.000000    0.000000
     0.000000    7.937700    0.000000
     0.000000    0.000000    7.937700
   O    H 
     1     2
Direct configuration=     1
   0.00000000  0.00000000  0.00000000
   0.07333333  0.90466667  0.00000000
   0.07333333  0.09533333  0.00000000
Direct configuration=     2
   0.00000000  0.00000000  0.00000000
   0.07292732  0.90706317  0.00000000
   0.07292732  0.09293683  0.00000000
Direct configuration=     3
   0.00000000  0.00000000  0.00000000
   0.07393255  0.90593318  0.00000000
   0.07393255  0.09406682  0.00000000
Direct configuration=     4
   0.00000000  0.00000000  0.00000000
   0.07449684  0.90646513  0.00000000
   0.07449684  0.09353487  0.00000000
Direct configuration=     5
   0.00000000  0.00000000  0.00000000
   0.07465728  0.90651510  0.00000000
   0.07465728  0.09348490  0.00000000
