    3    3   10    1
  0.1667104E+03  0.7937700E-09  0.7937700E-09  0.7937700E-09  0.5000000E-15
  1.000000000000000E-004
  CAR 
 unknown system                          
      8      1      8
 
  0.0000000E+00  0.0000000E+00  0.0000000E+00  0.1000000E+01
      1        -25.115941   1.000000
      2        -12.917566   1.000000
      3         -9.081983   1.000000
      4         -7.014994   1.000000
      5         -1.076536   0.000000
      6          1.120980   0.000000
      7          1.236864   0.000000
      8          1.751017   0.000000
