 vasp.6.3.2 27Jun22 (build Oct 19 2022 15:35:57) gamma-only                     
  
 executed on             LinuxIFC date 2023.09.19  17:55:17
 running    1 mpi-ranks, with    1 threads/rank
 distrk:  each k-point on    1 cores,    1 groups
 distr:  one band on NCORE=   1 cores,    1 groups


--------------------------------------------------------------------------------------------------------


 INCAR:
   PREC = Normal
   ISMEAR = 0
   SIGMA = 0.1
   IBRION = 1
   NFREE = 2
   NSW = 20
   EDIFFG = -0.02
   ENCUT = 600

 POTCAR:   PAW_RPBE O 08Apr2002                   
 POTCAR:   PAW_RPBE H 15Jun2001                   
 POTCAR:   PAW_RPBE O 08Apr2002                   
   VRHFIN =O: s2p4                                                                                  
   LEXCH  = PE                                                                                      
   EATOM  =   432.3788 eV,   31.7789 Ry                                                             
                                                                                                    
   TITEL  = PAW_RPBE O 08Apr2002                                                                    
   LULTRA =        F    use ultrasoft PP ?                                                          
   IUNSCR =        0    unscreen: 0-lin 1-nonlin 2-no                                               
   RPACOR =     .000    partial core radius                                                         
   POMASS =   16.000; ZVAL   =    6.000    mass and valenz                                          
   RCORE  =    1.520    outmost cutoff radius                                                       
   RWIGS  =    1.550; RWIGS  =     .820    wigner-seitz radius (au A)                               
   ENMAX  =  400.000; ENMIN  =  300.000 eV                                                          
   ICORE  =        2    local potential                                                             
   LCOR   =        T    correct aug charges                                                         
   LPAW   =        T    paw PP                                                                      
   EAUG   =  605.392                                                                                
   DEXC   =     .000                                                                                
   RMAX   =    2.264    core radius for proj-oper                                                   
   RAUG   =    1.300    factor for augmentation sphere                                              
   RDEP   =    1.550    radius for radial grids                                                     
   QCUT   =   -5.520; QGAM   =   11.041    optimization parameters                                  
                                                                                                    
   Description                                                                                      
     l     E      TYP  RCUT    TYP  RCUT                                                            
     0   .000     23  1.200                                                                         
     0  -.700     23  1.200                                                                         
     1   .000     23  1.520                                                                         
     1   .600     23  1.520                                                                         
     2   .000      7  1.500                                                                         
  local pseudopotential read in
  atomic valenz-charges read in
  non local Contribution for L=           0  read in
    real space projection operators read in
  non local Contribution for L=           0  read in
    real space projection operators read in
  non local Contribution for L=           1  read in
    real space projection operators read in
  non local Contribution for L=           1  read in
    real space projection operators read in
    PAW grid and wavefunctions read in
 
   number of l-projection  operators is LMAX  =           4
   number of lm-projection operators is LMMAX =           8
 
 POTCAR:   PAW_RPBE H 15Jun2001                   
   VRHFIN =H: ultrasoft test                                                                        
   LEXCH  = PE                                                                                      
   EATOM  =    12.4884 eV,     .9179 Ry                                                             
                                                                                                    
   TITEL  = PAW_RPBE H 15Jun2001                                                                    
   LULTRA =        F    use ultrasoft PP ?                                                          
   IUNSCR =        0    unscreen: 0-lin 1-nonlin 2-no                                               
   RPACOR =     .000    partial core radius                                                         
   POMASS =    1.000; ZVAL   =    1.000    mass and valenz                                          
   RCORE  =    1.100    outmost cutoff radius                                                       
   RWIGS  =     .700; RWIGS  =     .370    wigner-seitz radius (au A)                               
   ENMAX  =  250.000; ENMIN  =  200.000 eV                                                          
   RCLOC  =     .701    cutoff for local pot                                                        
   LCOR   =        T    correct aug charges                                                         
   LPAW   =        T    paw PP                                                                      
   EAUG   =  400.000                                                                                
   RMAX   =    2.174    core radius for proj-oper                                                   
   RAUG   =    1.200    factor for augmentation sphere                                              
   RDEP   =    1.112    radius for radial grids                                                     
   QCUT   =   -5.749; QGAM   =   11.498    optimization parameters                                  
                                                                                                    
   Description                                                                                      
     l     E      TYP  RCUT    TYP  RCUT                                                            
     0   .000     23  1.100                                                                         
     0   .500     23  1.100                                                                         
     1  -.300     23  1.100                                                                         
  local pseudopotential read in
  atomic valenz-charges read in
  non local Contribution for L=           0  read in
    real space projection operators read in
  non local Contribution for L=           0  read in
    real space projection operators read in
  non local Contribution for L=           1  read in
    real space projection operators read in
    PAW grid and wavefunctions read in
 
   number of l-projection  operators is LMAX  =           3
   number of lm-projection operators is LMMAX =           5
 
 PAW_RPBE O 08Apr2002                   :
 energy of atom  1       EATOM= -432.3788
 kinetic energy error for atom=    0.0168 (will be added to EATOM!!)
 PAW_RPBE H 15Jun2001                   :
 energy of atom  2       EATOM=  -12.4884
 kinetic energy error for atom=    0.0004 (will be added to EATOM!!)
 
 
 POSCAR: H2O _2
  positions in cartesian coordinates
  No initial velocities read in
 exchange correlation table for  LEXCH =        8
   RHO(1)=    0.500       N(1)  =     2000
   RHO(2)=  100.500       N(2)  =     4000
 


--------------------------------------------------------------------------------------------------------


 ion  position               nearest neighbor table
   1  0.000  0.000  0.000-   2 0.95   3 0.95
   2  0.073  0.905  0.000-   1 0.95
   3  0.073  0.095  0.000-   1 0.95
 
  LATTYP: Found a simple cubic cell.
 ALAT       =     7.9377000000
  
  Lattice vectors:
  
 A1 = (   7.9377000000,   0.0000000000,   0.0000000000)
 A2 = (   0.0000000000,   7.9377000000,   0.0000000000)
 A3 = (   0.0000000000,   0.0000000000,   7.9377000000)


Analysis of symmetry for initial positions (statically):
=====================================================================
 Subroutine PRICEL returns:
 Original cell was already a primitive cell.
 

 Routine SETGRP: Setting up the symmetry group for a 
 simple cubic supercell.


 Subroutine GETGRP returns: Found  4 space group operations
 (whereof  4 operations were pure point group operations)
 out of a pool of 48 trial point group operations.


The static configuration has the point symmetry C_2v.


Analysis of symmetry for dynamics (positions and initial velocities):
=====================================================================
 Subroutine PRICEL returns:
 Original cell was already a primitive cell.
 

 Routine SETGRP: Setting up the symmetry group for a 
 simple cubic supercell.


 Subroutine GETGRP returns: Found  4 space group operations
 (whereof  4 operations were pure point group operations)
 out of a pool of 48 trial point group operations.


The dynamic configuration has the point symmetry C_2v.


Analysis of constrained symmetry for selective dynamics:
=====================================================================
 Subroutine PRICEL returns:
 Original cell was already a primitive cell.
 

 Routine SETGRP: Setting up the symmetry group for a 
 simple cubic supercell.


 Subroutine GETGRP returns: Found  4 space group operations
 (whereof  4 operations were pure point group operations)
 out of a pool of 48 trial point group operations.


The constrained configuration has the point symmetry C_2v.


 Subroutine INISYM returns: Found  4 space group operations
 (whereof  4 operations are pure point group operations),
 and found     1 'primitive' translations


----------------------------------------------------------------------------------------

                                     Primitive cell                                     

  volume of cell :     500.1313

  direct lattice vectors                    reciprocal lattice vectors
     7.937700000  0.000000000  0.000000000     0.125981078  0.000000000  0.000000000
     0.000000000  7.937700000  0.000000000     0.000000000  0.125981078  0.000000000
     0.000000000  0.000000000  7.937700000     0.000000000  0.000000000  0.125981078

  length of vectors
     7.937700000  7.937700000  7.937700000     0.125981078  0.125981078  0.125981078

  position of ions in fractional coordinates (direct lattice)
     0.000000000  0.000000000  0.000000000
     0.073333333  0.904666667  0.000000000
     0.073333333  0.095333333  0.000000000

  ion indices of the primitive-cell ions
   primitive index   ion index
                 1           1
                 2           2
                 3           3

----------------------------------------------------------------------------------------

 
 
 KPOINTS: Gamma-point only                        

Automatic generation of k-mesh.
 Grid dimensions read from file:
 generate k-points for:    1    1    1

 Generating k-lattice:

  Cartesian coordinates                     Fractional coordinates (reciprocal lattice)
     0.125981078  0.000000000  0.000000000     1.000000000  0.000000000  0.000000000
     0.000000000  0.125981078  0.000000000     0.000000000  1.000000000  0.000000000
     0.000000000  0.000000000  0.125981078     0.000000000  0.000000000  1.000000000

  Length of vectors
     0.125981078  0.125981078  0.125981078

  Shift w.r.t. Gamma in fractional coordinates (k-lattice)
     0.000000000  0.000000000  0.000000000

 
 Subroutine IBZKPT returns following result:
 ===========================================
 
 Found      1 irreducible k-points:
 
 Following reciprocal coordinates:
            Coordinates               Weight
  0.000000  0.000000  0.000000      1.000000
 
 Following cartesian coordinates:
            Coordinates               Weight
  0.000000  0.000000  0.000000      1.000000
 


--------------------------------------------------------------------------------------------------------




 Dimension of arrays:
   k-points           NKPTS =      1   k-points in BZ     NKDIM =      1   number of bands    NBANDS=      8
   number of dos      NEDOS =    301   number of ions     NIONS =      3
   non local maximal  LDIM  =      4   non local SUM 2l+1 LMDIM =      8
   total plane-waves  NPLWV = 110592
   max r-space proj   IRMAX =      1   max aug-charges    IRDMAX=   3068
   dimension x,y,z NGX =    48 NGY =   48 NGZ =   48
   dimension x,y,z NGXF=    96 NGYF=   96 NGZF=   96
   support grid    NGXF=    96 NGYF=   96 NGZF=   96
   ions per type =               1   2
   NGX,Y,Z   is equivalent  to a cutoff of  10.05, 10.05, 10.05 a.u.
   NGXF,Y,Z  is equivalent  to a cutoff of  20.11, 20.11, 20.11 a.u.

 SYSTEM =  unknown system                          
 POSCAR =  H2O _2                                  

 Startparameter for this run:
   NWRITE =      2    write-flag & timer
   PREC   = normal    normal or accurate (medium, high low for compatibility)
   ISTART =      0    job   : 0-new  1-cont  2-samecut
   ICHARG =      2    charge: 1-file 2-atom 10-const
   ISPIN  =      1    spin polarized calculation?
   LNONCOLLINEAR =      F non collinear calculations
   LSORBIT =      F    spin-orbit coupling
   INIWAV =      1    electr: 0-lowe 1-rand  2-diag
   LASPH  =      F    aspherical Exc in radial PAW
 Electronic Relaxation 1
   ENCUT  =  600.0 eV  44.10 Ry    6.64 a.u.  15.85 15.85 15.85*2*pi/ulx,y,z
   ENINI  =  600.0     initial cutoff
   ENAUG  =  605.4 eV  augmentation charge cutoff
   NELM   =     60;   NELMIN=  2; NELMDL= -5     # of ELM steps 
   EDIFF  = 0.1E-03   stopping-criterion for ELM
   LREAL  =      F    real-space projection
   NLSPLINE    = F    spline interpolate recip. space projectors
   LCOMPAT=      F    compatible to vasp.4.4
   GGA_COMPAT  = T    GGA compatible to vasp.4.4-vasp.4.6
   LMAXPAW     = -100 max onsite density
   LMAXMIX     =    2 max onsite mixed and CHGCAR
   VOSKOWN=      0    Vosko Wilk Nusair interpolation
   ROPT   =    0.00000   0.00000
 Ionic relaxation
   EDIFFG = -.2E-01   stopping-criterion for IOM
   NSW    =     20    number of steps for IOM
   NBLOCK =      1;   KBLOCK =     20    inner block; outer block 
   IBRION =      1    ionic relax: 0-MD 1-quasi-New 2-CG
   NFREE  =      2    steps in history (QN), initial steepest desc. (CG)
   ISIF   =      2    stress and relaxation
   IWAVPR =     11    prediction:  0-non 1-charg 2-wave 3-comb
   ISYM   =      2    0-nonsym 1-usesym 2-fastsym
   LCORR  =      T    Harris-Foulkes like correction to forces

   POTIM  = 0.5000    time-step for ionic-motion
   TEIN   =    0.0    initial temperature
   TEBEG  =    0.0;   TEEND  =   0.0 temperature during run
   SMASS  =  -3.00    Nose mass-parameter (am)
   estimated Nose-frequenzy (Omega)   =  0.10E-29 period in steps = 0.13E+47 mass=  -0.144E-26a.u.
   SCALEE = 1.0000    scale energy and forces
   NPACO  =    256;   APACO  = 10.0  distance and # of slots for P.C.
   PSTRESS=    0.0 pullay stress

  Mass of Ions in am
   POMASS =  16.00  1.00
  Ionic Valenz
   ZVAL   =   6.00  1.00
  Atomic Wigner-Seitz radii
   RWIGS  =  -1.00 -1.00
  virtual crystal weights 
   VCA    =   1.00  1.00
   NELECT =       8.0000    total number of electrons
   NUPDOWN=      -1.0000    fix difference up-down

 DOS related values:
   EMIN   =  10.00;   EMAX   =-10.00  energy-range for DOS
   EFERMI =   0.00
   ISMEAR =     0;   SIGMA  =   0.10  broadening in eV -4-tet -1-fermi 0-gaus

 Electronic relaxation 2 (details)
   IALGO  =     38    algorithm
   LDIAG  =      T    sub-space diagonalisation (order eigenvalues)
   LSUBROT=      F    optimize rotation matrix (better conditioning)
   TURBO    =      0    0=normal 1=particle mesh
   IRESTART =      0    0=no restart 2=restart with 2 vectors
   NREBOOT  =      0    no. of reboots
   NMIN     =      0    reboot dimension
   EREF     =   0.00    reference energy to select bands
   IMIX   =      4    mixing-type and parameters
     AMIX     =   0.40;   BMIX     =  1.00
     AMIX_MAG =   1.60;   BMIX_MAG =  1.00
     AMIN     =   0.10
     WC   =   100.;   INIMIX=   1;  MIXPRE=   1;  MAXMIX= -45

 Intra band minimization:
   WEIMIN = 0.0010     energy-eigenvalue tresh-hold
   EBREAK =  0.31E-05  absolut break condition
   DEPER  =   0.30     relativ break condition  

   TIME   =   0.40     timestep for ELM

  volume/ion in A,a.u.               =     166.71      1125.02
  Fermi-wavevector in a.u.,A,eV,Ry     =   0.412487  0.779487  2.314969  0.170145
  Thomas-Fermi vector in A             =   1.369490
 
 Write flags
   LWAVE        =      T    write WAVECAR
   LDOWNSAMPLE  =      F    k-point downsampling of WAVECAR
   LCHARG       =      T    write CHGCAR
   LVTOT        =      F    write LOCPOT, total local potential
   LVHAR        =      F    write LOCPOT, Hartree potential only
   LELF         =      F    write electronic localiz. function (ELF)
   LORBIT       =      0    0 simple, 1 ext, 2 COOP (PROOUT), +10 PAW based schemes


 Dipole corrections
   LMONO  =      F    monopole corrections only (constant potential shift)
   LDIPOL =      F    correct potential (dipole corrections)
   IDIPOL =      0    1-x, 2-y, 3-z, 4-all directions 
   EPSILON=  1.0000000 bulk dielectric constant

 Exchange correlation treatment:
   GGA     =    --    GGA type
   LEXCH   =     8    internal setting for exchange type
   LIBXC   =     F    Libxc                    
   VOSKOWN =     0    Vosko Wilk Nusair interpolation
   LHFCALC =     F    Hartree Fock is set to
   LHFONE  =     F    Hartree Fock one center treatment
   AEXX    =    0.0000 exact exchange contribution

 Linear response parameters
   LEPSILON=     F    determine dielectric tensor
   LRPA    =     F    only Hartree local field effects (RPA)
   LNABLA  =     F    use nabla operator in PAW spheres
   LVEL    =     F    velocity operator in full k-point grid
   CSHIFT  =0.1000    complex shift for real part using Kramers Kronig
   OMEGAMAX=  -1.0    maximum frequency
   DEG_THRESHOLD= 0.2000000E-02 threshold for treating states as degnerate
   RTIME   =   -0.100 relaxation time in fs
  (WPLASMAI=    0.000 imaginary part of plasma frequency in eV, 0.658/RTIME)
   DFIELD  = 0.0000000 0.0000000 0.0000000 field for delta impulse in time
 
  Optional k-point grid parameters
   LKPOINTS_OPT  =     F    use optional k-point grid
   KPOINTS_OPT_MODE=     1    mode for optional k-point grid
 
 Orbital magnetization related:
   ORBITALMAG=     F  switch on orbital magnetization
   LCHIMAG   =     F  perturbation theory with respect to B field
   DQ        =  0.001000  dq finite difference perturbation B field
   LLRAUG    =     F  two centre corrections for induced B field



--------------------------------------------------------------------------------------------------------


 quasi-Newton-method for relaxation of ions
   using selective dynamics as specified on POSCAR
   WARNING: If single coordinates had been selected the selection of coordinates
            is made according to the corresponding   d i r e c t   coordinates!
            Don't support selection of single cartesian coordinates -- sorry ...
  !
 charge density and potential will be updated during run
 non-spin polarized calculation
 Variant of blocked Davidson
 Davidson routine will perform the subspace rotation
 perform sub-space diagonalisation
    after iterative eigenvector-optimisation
 modified Broyden-mixing scheme, WC =      100.0
 initial mixing is a Kerker type mixing with AMIX =  0.4000 and BMIX =      1.0000
 Hartree-type preconditioning will be used
 using additional bands            4
 reciprocal scheme for non local part
 calculate Harris-corrections to forces 
   (improved forces if not selfconsistent)
 use gradient corrections 
 use of overlap-Matrix (Vanderbilt PP)
 Gauss-broadening in eV      SIGMA  =   0.10


--------------------------------------------------------------------------------------------------------


  energy-cutoff  :      600.00
  volume of cell :      500.13
      direct lattice vectors                 reciprocal lattice vectors
     7.937700000  0.000000000  0.000000000     0.125981078  0.000000000  0.000000000
     0.000000000  7.937700000  0.000000000     0.000000000  0.125981078  0.000000000
     0.000000000  0.000000000  7.937700000     0.000000000  0.000000000  0.125981078

  length of vectors
     7.937700000  7.937700000  7.937700000     0.125981078  0.125981078  0.125981078


 
 k-points in units of 2pi/SCALE and weight: Gamma-point only                        
   0.00000000  0.00000000  0.00000000       1.000
 
 k-points in reciprocal lattice and weights: Gamma-point only                        
   0.00000000  0.00000000  0.00000000       1.000
 
 position of ions in fractional coordinates (direct lattice) 
   0.00000000  0.00000000  0.00000000
   0.07333333  0.90466667  0.00000000
   0.07333333  0.09533333  0.00000000
 
 position of ions in cartesian coordinates  (Angst):
   0.00000000  0.00000000  0.00000000
   0.58209800  7.18097260  0.00000000
   0.58209800  0.75672740  0.00000000
 


--------------------------------------------------------------------------------------------------------


 use serial FFT for orbitals x direction half grid
 k-point   1 :   0.0000 0.0000 0.0000  plane waves:    8416

 maximum and minimum number of plane-waves per node :      8416     8416

 maximum number of plane-waves:      8416
 maximum index in each direction: 
   IXMAX=   15   IYMAX=   15   IZMAX=   15
   IXMIN=    0   IYMIN=  -15   IZMIN=  -15


 serial   3D FFT for wavefunctions
 parallel 3D FFT for charge:
    minimum data exchange during FFTs selected (reduces bandwidth)


 total amount of memory used by VASP MPI-rank0   118042. kBytes
=======================================================================

   base      :      30000. kBytes
   nonl-proj :       1481. kBytes
   fftplans  :      30736. kBytes
   grid      :      54743. kBytes
   one-center:          4. kBytes
   wavefun   :       1078. kBytes
 
     INWAV:  cpu time      0.0000: real time      0.0000
 Broyden mixing: mesh for mixing (old mesh)
   NGX = 31   NGY = 31   NGZ = 31
  (NGX  = 96   NGY  = 96   NGZ  = 96)
  gives a total of  29791 points

 initial charge density was supplied:
 charge density of overlapping atoms calculated
 number of electron       8.0000000 magnetization 
 keeping initial charge density in first step


--------------------------------------------------------------------------------------------------------


 Maximum index for augmentation-charges         2801 (set IRDMAX)


--------------------------------------------------------------------------------------------------------


 First call to EWALD:  gamma=   0.223
 Maximum number of real-space cells 3x 3x 3
 Maximum number of reciprocal cells 3x 3x 3

    FEWALD:  cpu time      0.0013: real time      0.0013


--------------------------------------- Iteration      1(   1)  ---------------------------------------


    POTLOK:  cpu time      0.3384: real time      0.3394
    SETDIJ:  cpu time      0.0024: real time      0.0024
     EDDAV:  cpu time      0.0812: real time      0.0815
       DOS:  cpu time      0.0001: real time      0.0001
    --------------------------------------------
      LOOP:  cpu time      0.4222: real time      0.4234

 eigenvalue-minimisations  :    16
 total energy-change (2. order) : 0.7415390E+02  (-0.1726199E+03)
 number of electron       8.0000000 magnetization 
 augmentation part        8.0000000 magnetization 

 Free energy of the ion-electron system (eV)
  ---------------------------------------------------
  alpha Z        PSCENC =         0.44832783
  Ewald energy   TEWEN  =        26.60306768
  -Hartree energ DENC   =      -386.12288572
  -exchange      EXHF   =         0.00000000
  -V(xc)+E(xc)   XCENC  =        32.30058099
  PAW double counting   =       247.56105404     -249.42875511
  entropy T*S    EENTRO =        -0.00000060
  eigenvalues    EBANDS =       -54.54545133
  atomic energy  EATOM  =       457.33795725
  Solvation  Ediel_sol  =         0.00000000
  ---------------------------------------------------
  free energy    TOTEN  =        74.15389502 eV

  energy without entropy =       74.15389562  energy(sigma->0) =       74.15389532


--------------------------------------------------------------------------------------------------------




--------------------------------------- Iteration      1(   2)  ---------------------------------------


     EDDAV:  cpu time      0.1136: real time      0.1140
       DOS:  cpu time      0.0001: real time      0.0001
    --------------------------------------------
      LOOP:  cpu time      0.1138: real time      0.1142

 eigenvalue-minimisations  :    32
 total energy-change (2. order) :-0.6777129E+02  (-0.6777129E+02)
 number of electron       8.0000000 magnetization 
 augmentation part        8.0000000 magnetization 

 Free energy of the ion-electron system (eV)
  ---------------------------------------------------
  alpha Z        PSCENC =         0.44832783
  Ewald energy   TEWEN  =        26.60306768
  -Hartree energ DENC   =      -386.12288572
  -exchange      EXHF   =         0.00000000
  -V(xc)+E(xc)   XCENC  =        32.30058099
  PAW double counting   =       247.56105404     -249.42875511
  entropy T*S    EENTRO =        -0.00000000
  eigenvalues    EBANDS =      -122.31674439
  atomic energy  EATOM  =       457.33795725
  Solvation  Ediel_sol  =         0.00000000
  ---------------------------------------------------
  free energy    TOTEN  =         6.38260256 eV

  energy without entropy =        6.38260256  energy(sigma->0) =        6.38260256


--------------------------------------------------------------------------------------------------------




--------------------------------------- Iteration      1(   3)  ---------------------------------------


     EDDAV:  cpu time      0.0576: real time      0.0579
       DOS:  cpu time      0.0001: real time      0.0001
    --------------------------------------------
      LOOP:  cpu time      0.0578: real time      0.0581

 eigenvalue-minimisations  :    16
 total energy-change (2. order) :-0.2133535E+02  (-0.2133535E+02)
 number of electron       8.0000000 magnetization 
 augmentation part        8.0000000 magnetization 

 Free energy of the ion-electron system (eV)
  ---------------------------------------------------
  alpha Z        PSCENC =         0.44832783
  Ewald energy   TEWEN  =        26.60306768
  -Hartree energ DENC   =      -386.12288572
  -exchange      EXHF   =         0.00000000
  -V(xc)+E(xc)   XCENC  =        32.30058099
  PAW double counting   =       247.56105404     -249.42875511
  entropy T*S    EENTRO =        -0.00000000
  eigenvalues    EBANDS =      -143.65209112
  atomic energy  EATOM  =       457.33795725
  Solvation  Ediel_sol  =         0.00000000
  ---------------------------------------------------
  free energy    TOTEN  =       -14.95274417 eV

  energy without entropy =      -14.95274417  energy(sigma->0) =      -14.95274417


--------------------------------------------------------------------------------------------------------




--------------------------------------- Iteration      1(   4)  ---------------------------------------


     EDDAV:  cpu time      0.0553: real time      0.0556
       DOS:  cpu time      0.0001: real time      0.0001
    --------------------------------------------
      LOOP:  cpu time      0.0554: real time      0.0557

 eigenvalue-minimisations  :    16
 total energy-change (2. order) :-0.1397969E+01  (-0.1397969E+01)
 number of electron       8.0000000 magnetization 
 augmentation part        8.0000000 magnetization 

 Free energy of the ion-electron system (eV)
  ---------------------------------------------------
  alpha Z        PSCENC =         0.44832783
  Ewald energy   TEWEN  =        26.60306768
  -Hartree energ DENC   =      -386.12288572
  -exchange      EXHF   =         0.00000000
  -V(xc)+E(xc)   XCENC  =        32.30058099
  PAW double counting   =       247.56105404     -249.42875511
  entropy T*S    EENTRO =        -0.00000000
  eigenvalues    EBANDS =      -145.05006011
  atomic energy  EATOM  =       457.33795725
  Solvation  Ediel_sol  =         0.00000000
  ---------------------------------------------------
  free energy    TOTEN  =       -16.35071316 eV

  energy without entropy =      -16.35071316  energy(sigma->0) =      -16.35071316


--------------------------------------------------------------------------------------------------------




--------------------------------------- Iteration      1(   5)  ---------------------------------------


     EDDAV:  cpu time      0.0770: real time      0.0773
       DOS:  cpu time      0.0001: real time      0.0001
    CHARGE:  cpu time      0.0402: real time      0.0403
    MIXING:  cpu time      0.0155: real time      0.0155
    --------------------------------------------
      LOOP:  cpu time      0.1328: real time      0.1333

 eigenvalue-minimisations  :    24
 total energy-change (2. order) :-0.9817244E-02  (-0.9817244E-02)
 number of electron       7.9999982 magnetization 
 augmentation part        0.8473252 magnetization 

 Broyden mixing:
  rms(total) = 0.79903E+00    rms(broyden)= 0.79865E+00
  rms(prec ) = 0.12175E+01
  weight for this iteration     100.00

 Free energy of the ion-electron system (eV)
  ---------------------------------------------------
  alpha Z        PSCENC =         0.44832783
  Ewald energy   TEWEN  =        26.60306768
  -Hartree energ DENC   =      -386.12288572
  -exchange      EXHF   =         0.00000000
  -V(xc)+E(xc)   XCENC  =        32.30058099
  PAW double counting   =       247.56105404     -249.42875511
  entropy T*S    EENTRO =        -0.00000000
  eigenvalues    EBANDS =      -145.05987735
  atomic energy  EATOM  =       457.33795725
  Solvation  Ediel_sol  =         0.00000000
  ---------------------------------------------------
  free energy    TOTEN  =       -16.36053040 eV

  energy without entropy =      -16.36053040  energy(sigma->0) =      -16.36053040


--------------------------------------------------------------------------------------------------------




--------------------------------------- Iteration      1(   6)  ---------------------------------------


    POTLOK:  cpu time      0.3439: real time      0.3450
    SETDIJ:  cpu time      0.0025: real time      0.0025
     EDDAV:  cpu time      0.0725: real time      0.0727
       DOS:  cpu time      0.0001: real time      0.0001
    CHARGE:  cpu time      0.0315: real time      0.0316
    MIXING:  cpu time      0.0166: real time      0.0166
    --------------------------------------------
      LOOP:  cpu time      0.4671: real time      0.4685

 eigenvalue-minimisations  :    16
 total energy-change (2. order) : 0.1970153E+01  (-0.9822629E+00)
 number of electron       7.9999987 magnetization 
 augmentation part        0.7080124 magnetization 

 Broyden mixing:
  rms(total) = 0.30588E+00    rms(broyden)= 0.30569E+00
  rms(prec ) = 0.40400E+00
  weight for this iteration     100.00

 eigenvalues of (default mixing * dielectric matrix)
  average eigenvalue GAMMA=   0.9187
  0.9187

 Free energy of the ion-electron system (eV)
  ---------------------------------------------------
  alpha Z        PSCENC =         0.44832783
  Ewald energy   TEWEN  =        26.60306768
  -Hartree energ DENC   =      -410.79742862
  -exchange      EXHF   =         0.00000000
  -V(xc)+E(xc)   XCENC  =        33.67810955
  PAW double counting   =       302.98478016     -305.23178241
  entropy T*S    EENTRO =        -0.00000000
  eigenvalues    EBANDS =      -119.41340872
  atomic energy  EATOM  =       457.33795725
  Solvation  Ediel_sol  =         0.00000000
  ---------------------------------------------------
  free energy    TOTEN  =       -14.39037727 eV

  energy without entropy =      -14.39037727  energy(sigma->0) =      -14.39037727


--------------------------------------------------------------------------------------------------------




--------------------------------------- Iteration      1(   7)  ---------------------------------------


    POTLOK:  cpu time      0.3285: real time      0.3295
    SETDIJ:  cpu time      0.0023: real time      0.0023
     EDDAV:  cpu time      0.0834: real time      0.0836
       DOS:  cpu time      0.0001: real time      0.0001
    CHARGE:  cpu time      0.0229: real time      0.0229
    MIXING:  cpu time      0.0161: real time      0.0161
    --------------------------------------------
      LOOP:  cpu time      0.4531: real time      0.4545

 eigenvalue-minimisations  :    24
 total energy-change (2. order) : 0.1100150E+00  (-0.1397000E-01)
 number of electron       7.9999987 magnetization 
 augmentation part        0.7037643 magnetization 

 Broyden mixing:
  rms(total) = 0.19030E+00    rms(broyden)= 0.19030E+00
  rms(prec ) = 0.25548E+00
  weight for this iteration     100.00

 eigenvalues of (default mixing * dielectric matrix)
  average eigenvalue GAMMA=   1.7397
  1.0394  2.4399

 Free energy of the ion-electron system (eV)
  ---------------------------------------------------
  alpha Z        PSCENC =         0.44832783
  Ewald energy   TEWEN  =        26.60306768
  -Hartree energ DENC   =      -414.67530122
  -exchange      EXHF   =         0.00000000
  -V(xc)+E(xc)   XCENC  =        33.88392671
  PAW double counting   =       315.90997748     -318.12205726
  entropy T*S    EENTRO =        -0.00000000
  eigenvalues    EBANDS =      -115.66626071
  atomic energy  EATOM  =       457.33795725
  Solvation  Ediel_sol  =         0.00000000
  ---------------------------------------------------
  free energy    TOTEN  =       -14.28036225 eV

  energy without entropy =      -14.28036225  energy(sigma->0) =      -14.28036225


--------------------------------------------------------------------------------------------------------




--------------------------------------- Iteration      1(   8)  ---------------------------------------


    POTLOK:  cpu time      0.2932: real time      0.2941
    SETDIJ:  cpu time      0.0022: real time      0.0022
     EDDAV:  cpu time      0.0755: real time      0.0757
       DOS:  cpu time      0.0001: real time      0.0001
    CHARGE:  cpu time      0.0258: real time      0.0259
    MIXING:  cpu time      0.0189: real time      0.0189
    --------------------------------------------
      LOOP:  cpu time      0.4157: real time      0.4169

 eigenvalue-minimisations  :    24
 total energy-change (2. order) : 0.8598324E-01  (-0.7238021E-02)
 number of electron       7.9999987 magnetization 
 augmentation part        0.7021207 magnetization 

 Broyden mixing:
  rms(total) = 0.21247E-01    rms(broyden)= 0.21243E-01
  rms(prec ) = 0.51938E-01
  weight for this iteration     100.00

 eigenvalues of (default mixing * dielectric matrix)
  average eigenvalue GAMMA=   1.5164
  2.3548  1.0231  1.1714

 Free energy of the ion-electron system (eV)
  ---------------------------------------------------
  alpha Z        PSCENC =         0.44832783
  Ewald energy   TEWEN  =        26.60306768
  -Hartree energ DENC   =      -420.17359708
  -exchange      EXHF   =         0.00000000
  -V(xc)+E(xc)   XCENC  =        34.19754400
  PAW double counting   =       334.16614611     -336.33329508
  entropy T*S    EENTRO =        -0.00000000
  eigenvalues    EBANDS =      -110.44052971
  atomic energy  EATOM  =       457.33795725
  Solvation  Ediel_sol  =         0.00000000
  ---------------------------------------------------
  free energy    TOTEN  =       -14.19437901 eV

  energy without entropy =      -14.19437901  energy(sigma->0) =      -14.19437901


--------------------------------------------------------------------------------------------------------




--------------------------------------- Iteration      1(   9)  ---------------------------------------


    POTLOK:  cpu time      0.2938: real time      0.2947
    SETDIJ:  cpu time      0.0024: real time      0.0024
     EDDAV:  cpu time      0.0765: real time      0.0767
       DOS:  cpu time      0.0001: real time      0.0001
    CHARGE:  cpu time      0.0239: real time      0.0240
    MIXING:  cpu time      0.0162: real time      0.0162
    --------------------------------------------
      LOOP:  cpu time      0.4129: real time      0.4141

 eigenvalue-minimisations  :    24
 total energy-change (2. order) :-0.3690553E-02  (-0.3840190E-03)
 number of electron       7.9999988 magnetization 
 augmentation part        0.6996225 magnetization 

 Broyden mixing:
  rms(total) = 0.13690E-01    rms(broyden)= 0.13689E-01
  rms(prec ) = 0.36304E-01
  weight for this iteration     100.00

 eigenvalues of (default mixing * dielectric matrix)
  average eigenvalue GAMMA=   1.9104
  0.9920  0.9920  3.1383  2.5194

 Free energy of the ion-electron system (eV)
  ---------------------------------------------------
  alpha Z        PSCENC =         0.44832783
  Ewald energy   TEWEN  =        26.60306768
  -Hartree energ DENC   =      -420.80382427
  -exchange      EXHF   =         0.00000000
  -V(xc)+E(xc)   XCENC  =        34.21487852
  PAW double counting   =       332.55318565     -334.72413283
  entropy T*S    EENTRO =        -0.00000000
  eigenvalues    EBANDS =      -109.82752940
  atomic energy  EATOM  =       457.33795725
  Solvation  Ediel_sol  =         0.00000000
  ---------------------------------------------------
  free energy    TOTEN  =       -14.19806956 eV

  energy without entropy =      -14.19806956  energy(sigma->0) =      -14.19806956


--------------------------------------------------------------------------------------------------------




--------------------------------------- Iteration      1(  10)  ---------------------------------------


    POTLOK:  cpu time      0.2930: real time      0.2940
    SETDIJ:  cpu time      0.0022: real time      0.0022
     EDDAV:  cpu time      0.0524: real time      0.0526
       DOS:  cpu time      0.0001: real time      0.0001
    CHARGE:  cpu time      0.0222: real time      0.0222
    MIXING:  cpu time      0.0196: real time      0.0197
    --------------------------------------------
      LOOP:  cpu time      0.3895: real time      0.3908

 eigenvalue-minimisations  :    16
 total energy-change (2. order) :-0.8752878E-02  (-0.4059706E-03)
 number of electron       7.9999988 magnetization 
 augmentation part        0.7002190 magnetization 

 Broyden mixing:
  rms(total) = 0.65031E-02    rms(broyden)= 0.65018E-02
  rms(prec ) = 0.13504E-01
  weight for this iteration     100.00

 eigenvalues of (default mixing * dielectric matrix)
  average eigenvalue GAMMA=   2.1011
  3.5913  1.0012  1.0012  2.4558  2.4558

 Free energy of the ion-electron system (eV)
  ---------------------------------------------------
  alpha Z        PSCENC =         0.44832783
  Ewald energy   TEWEN  =        26.60306768
  -Hartree energ DENC   =      -421.44730318
  -exchange      EXHF   =         0.00000000
  -V(xc)+E(xc)   XCENC  =        34.21794665
  PAW double counting   =       329.10019340     -331.26445810
  entropy T*S    EENTRO =        -0.00000000
  eigenvalues    EBANDS =      -109.20255396
  atomic energy  EATOM  =       457.33795725
  Solvation  Ediel_sol  =         0.00000000
  ---------------------------------------------------
  free energy    TOTEN  =       -14.20682244 eV

  energy without entropy =      -14.20682244  energy(sigma->0) =      -14.20682244


--------------------------------------------------------------------------------------------------------




--------------------------------------- Iteration      1(  11)  ---------------------------------------


    POTLOK:  cpu time      0.2790: real time      0.2799
    SETDIJ:  cpu time      0.0022: real time      0.0022
     EDDAV:  cpu time      0.0547: real time      0.0549
       DOS:  cpu time      0.0001: real time      0.0001
    CHARGE:  cpu time      0.0254: real time      0.0254
    MIXING:  cpu time      0.0183: real time      0.0184
    --------------------------------------------
      LOOP:  cpu time      0.3797: real time      0.3808

 eigenvalue-minimisations  :    16
 total energy-change (2. order) :-0.7350787E-02  (-0.4980496E-03)
 number of electron       7.9999988 magnetization 
 augmentation part        0.6978809 magnetization 

 Broyden mixing:
  rms(total) = 0.96682E-02    rms(broyden)= 0.96662E-02
  rms(prec ) = 0.14738E-01
  weight for this iteration     100.00

 eigenvalues of (default mixing * dielectric matrix)
  average eigenvalue GAMMA=   2.0489
  4.1807  2.8752  2.4000  0.9997  0.9997  0.8381

 Free energy of the ion-electron system (eV)
  ---------------------------------------------------
  alpha Z        PSCENC =         0.44832783
  Ewald energy   TEWEN  =        26.60306768
  -Hartree energ DENC   =      -422.00344677
  -exchange      EXHF   =         0.00000000
  -V(xc)+E(xc)   XCENC  =        34.24066813
  PAW double counting   =       331.11890805     -333.28795896
  entropy T*S    EENTRO =        -0.00000000
  eigenvalues    EBANDS =      -108.67169643
  atomic energy  EATOM  =       457.33795725
  Solvation  Ediel_sol  =         0.00000000
  ---------------------------------------------------
  free energy    TOTEN  =       -14.21417323 eV

  energy without entropy =      -14.21417323  energy(sigma->0) =      -14.21417323


--------------------------------------------------------------------------------------------------------




--------------------------------------- Iteration      1(  12)  ---------------------------------------


    POTLOK:  cpu time      0.2757: real time      0.2765
    SETDIJ:  cpu time      0.0022: real time      0.0022
     EDDAV:  cpu time      0.0966: real time      0.0969
       DOS:  cpu time      0.0001: real time      0.0001
    CHARGE:  cpu time      0.0220: real time      0.0221
    MIXING:  cpu time      0.0202: real time      0.0202
    --------------------------------------------
      LOOP:  cpu time      0.4169: real time      0.4181

 eigenvalue-minimisations  :    32
 total energy-change (2. order) :-0.8106022E-03  (-0.1241854E-03)
 number of electron       7.9999988 magnetization 
 augmentation part        0.6993880 magnetization 

 Broyden mixing:
  rms(total) = 0.20364E-02    rms(broyden)= 0.20342E-02
  rms(prec ) = 0.35102E-02
  weight for this iteration     100.00

 eigenvalues of (default mixing * dielectric matrix)
  average eigenvalue GAMMA=   2.3212
  5.2397  2.9078  2.9078  2.2647  1.0402  0.9441  0.9441

 Free energy of the ion-electron system (eV)
  ---------------------------------------------------
  alpha Z        PSCENC =         0.44832783
  Ewald energy   TEWEN  =        26.60306768
  -Hartree energ DENC   =      -421.66765495
  -exchange      EXHF   =         0.00000000
  -V(xc)+E(xc)   XCENC  =        34.21916031
  PAW double counting   =       330.25971716     -332.42538548
  entropy T*S    EENTRO =        -0.00000000
  eigenvalues    EBANDS =      -108.99017363
  atomic energy  EATOM  =       457.33795725
  Solvation  Ediel_sol  =         0.00000000
  ---------------------------------------------------
  free energy    TOTEN  =       -14.21498383 eV

  energy without entropy =      -14.21498383  energy(sigma->0) =      -14.21498383


--------------------------------------------------------------------------------------------------------




--------------------------------------- Iteration      1(  13)  ---------------------------------------


    POTLOK:  cpu time      0.2887: real time      0.2896
    SETDIJ:  cpu time      0.0022: real time      0.0022
     EDDAV:  cpu time      0.0742: real time      0.0744
       DOS:  cpu time      0.0001: real time      0.0001
    CHARGE:  cpu time      0.0239: real time      0.0240
    MIXING:  cpu time      0.0210: real time      0.0210
    --------------------------------------------
      LOOP:  cpu time      0.4101: real time      0.4113

 eigenvalue-minimisations  :    24
 total energy-change (2. order) :-0.1191215E-02  (-0.2065230E-04)
 number of electron       7.9999988 magnetization 
 augmentation part        0.6996911 magnetization 

 Broyden mixing:
  rms(total) = 0.13693E-02    rms(broyden)= 0.13684E-02
  rms(prec ) = 0.17856E-02
  weight for this iteration     100.00

 eigenvalues of (default mixing * dielectric matrix)
  average eigenvalue GAMMA=   2.1996
  5.6987  3.1773  2.5629  2.1873  1.1232  0.9686  0.9686  0.9106

 Free energy of the ion-electron system (eV)
  ---------------------------------------------------
  alpha Z        PSCENC =         0.44832783
  Ewald energy   TEWEN  =        26.60306768
  -Hartree energ DENC   =      -421.58805098
  -exchange      EXHF   =         0.00000000
  -V(xc)+E(xc)   XCENC  =        34.21376581
  PAW double counting   =       330.14187344     -332.30649772
  entropy T*S    EENTRO =        -0.00000000
  eigenvalues    EBANDS =      -109.06661835
  atomic energy  EATOM  =       457.33795725
  Solvation  Ediel_sol  =         0.00000000
  ---------------------------------------------------
  free energy    TOTEN  =       -14.21617505 eV

  energy without entropy =      -14.21617505  energy(sigma->0) =      -14.21617505


--------------------------------------------------------------------------------------------------------




--------------------------------------- Iteration      1(  14)  ---------------------------------------


    POTLOK:  cpu time      0.2740: real time      0.2750
    SETDIJ:  cpu time      0.0021: real time      0.0021
     EDDAV:  cpu time      0.0902: real time      0.0905
       DOS:  cpu time      0.0001: real time      0.0001
    --------------------------------------------
      LOOP:  cpu time      0.3664: real time      0.3676

 eigenvalue-minimisations  :    32
 total energy-change (2. order) :-0.7472216E-04  (-0.1377036E-05)
 number of electron       7.9999988 magnetization 
 augmentation part        0.6996911 magnetization 

 Free energy of the ion-electron system (eV)
  ---------------------------------------------------
  alpha Z        PSCENC =         0.44832783
  Ewald energy   TEWEN  =        26.60306768
  -Hartree energ DENC   =      -421.58975377
  -exchange      EXHF   =         0.00000000
  -V(xc)+E(xc)   XCENC  =        34.21380960
  PAW double counting   =       330.12930850     -332.29433995
  entropy T*S    EENTRO =        -0.00000000
  eigenvalues    EBANDS =      -109.06462691
  atomic energy  EATOM  =       457.33795725
  Solvation  Ediel_sol  =         0.00000000
  ---------------------------------------------------
  free energy    TOTEN  =       -14.21624977 eV

  energy without entropy =      -14.21624977  energy(sigma->0) =      -14.21624977


--------------------------------------------------------------------------------------------------------




 average (electrostatic) potential at core
  the test charge radii are     0.7215  0.5201
  (the norm of the test charge is              1.0000)
       1 -80.3974       2 -44.7655       3 -44.7655
 
 
 
 E-fermi :  -6.5446     XC(G=0):  -0.9853     alpha+bet : -0.2602

 Fermi energy:        -6.5446144404

 k-point     1 :       0.0000    0.0000    0.0000
  band No.  band energies     occupation 
      1     -25.3013      2.00000
      2     -13.0913      2.00000
      3      -9.0890      2.00000
      4      -7.0506      2.00000
      5      -1.0121      0.00000
      6       1.1471      0.00000
      7       1.3026      0.00000
      8       1.8516      0.00000


--------------------------------------------------------------------------------------------------------


 soft charge-density along one line, spin component           1
         0         1         2         3         4         5         6         7         8         9
 total charge-density along one line
 
 pseudopotential strength for first ion, spin component:           1
 13.779  -0.523  -0.000   0.000  -0.125   0.000  -0.000   0.006
 -0.523   0.119   0.000  -0.000   0.015  -0.000   0.000  -0.003
 -0.000   0.000 -10.551   0.000  -0.000   0.287  -0.000   0.000
  0.000  -0.000   0.000 -10.305  -0.000  -0.000   0.246   0.000
 -0.125   0.015  -0.000  -0.000 -10.448   0.000   0.000   0.270
  0.000  -0.000   0.287  -0.000   0.000   0.129   0.000  -0.000
 -0.000   0.000  -0.000   0.246   0.000   0.000   0.141  -0.000
  0.006  -0.003   0.000   0.000   0.270  -0.000  -0.000   0.134
 total augmentation occupancy for first ion, spin component:           1
  1.843   0.167   0.000   0.000  -0.162   0.000   0.000   0.061
  0.167   0.040   0.000   0.000   0.181   0.000   0.000   0.031
  0.000   0.000   1.426   0.000   0.000   0.268   0.000   0.000
  0.000   0.000   0.000   1.811   0.000   0.000   0.095   0.000
 -0.162   0.181   0.000   0.000   1.585   0.000   0.000   0.199
  0.000   0.000   0.268   0.000   0.000   0.050   0.000   0.000
  0.000   0.000   0.000   0.095   0.000   0.000   0.005   0.000
  0.061   0.031   0.000   0.000   0.199   0.000   0.000   0.029


------------------------ aborting loop because EDIFF is reached ----------------------------------------


    CHARGE:  cpu time      0.0211: real time      0.0211
    FORLOC:  cpu time      0.0254: real time      0.0254
    FORNL :  cpu time      0.0055: real time      0.0055
    STRESS:  cpu time      0.0438: real time      0.0439
    FORHAR:  cpu time      0.0813: real time      0.0815
    MIXING:  cpu time      0.0181: real time      0.0181
    OFIELD:  cpu time      0.0001: real time      0.0001

  FORCE on cell =-STRESS in cart. coord.  units (eV):
  Direction    XX          YY          ZZ          XY          YZ          ZX
  --------------------------------------------------------------------------------------
  Alpha Z     0.44833     0.44833     0.44833
  Ewald      12.60061    69.29602   -55.29360    -0.00000    -0.00000     0.00000
  Hartree   141.37496   150.95938   129.23570    -0.00000    -0.00000    -0.00000
  E(xc)     -36.25628   -36.05389   -36.54746    -0.00000    -0.00000    -0.00000
  Local    -242.84191  -293.01604  -183.78577    -0.00000     0.00000     0.00000
  n-local   -31.41762   -30.64910   -31.06944     0.00000    -0.00000     0.00000
  augment     6.80785     5.79492     8.21919     0.00000     0.00000     0.00000
  Kinetic   149.79717   134.24268   168.75056    -0.00000    -0.00000     0.00000
  Fock        0.00000     0.00000     0.00000     0.00000     0.00000     0.00000
  -------------------------------------------------------------------------------------
  Total       0.51311     1.02230    -0.04249     0.00000     0.00000     0.00000
  in kB       1.64376     3.27496    -0.13613     0.00000     0.00000     0.00000
  external pressure =        1.59 kB  Pullay stress =        0.00 kB


 VOLUME and BASIS-vectors are now :
 -----------------------------------------------------------------------------
  energy-cutoff  :      600.00
  volume of cell :      500.13
      direct lattice vectors                 reciprocal lattice vectors
     7.937700000  0.000000000  0.000000000     0.125981078  0.000000000  0.000000000
     0.000000000  7.937700000  0.000000000     0.000000000  0.125981078  0.000000000
     0.000000000  0.000000000  7.937700000     0.000000000  0.000000000  0.125981078

  length of vectors
     7.937700000  7.937700000  7.937700000     0.125981078  0.125981078  0.125981078


 FORCES acting on ions
    electron-ion (+dipol)            ewald-force                    non-local-force                 convergence-correction
 -----------------------------------------------------------------------------------------------
   0.642E+02 -.472E-16 0.410E-15   -.115E+03 0.142E-13 0.210E-16   0.495E+02 0.114E-25 -.189E-21   -.481E-02 0.105E-13 -.121E-13
   -.517E+02 0.728E+02 -.797E-07   0.574E+02 -.807E+02 0.134E-16   -.517E+01 0.720E+01 -.332E-23   -.114E-02 0.985E-03 -.219E-14
   -.517E+02 -.728E+02 0.126E-06   0.574E+02 0.807E+02 0.118E-16   -.517E+01 -.720E+01 0.199E-23   -.114E-02 -.985E-03 -.137E-14
 -----------------------------------------------------------------------------------------------
   -.392E+02 0.142E-13 0.461E-07   -.711E-14 0.000E+00 0.461E-16   0.392E+02 -.888E-15 -.190E-21   -.709E-02 0.105E-13 -.157E-13
 
 
 POSITION                                       TOTAL-FORCE (eV/Angst)
 -----------------------------------------------------------------------------------
      0.00000      0.00000      0.00000        -1.045114     -0.000000     -0.000000
      0.58210      7.18097      0.00000         0.522557     -0.714750     -0.000000
      0.58210      0.75673      0.00000         0.522557      0.714750      0.000000
 -----------------------------------------------------------------------------------
    total drift:                               -0.001010      0.000000      0.000000


--------------------------------------------------------------------------------------------------------



  FREE ENERGIE OF THE ION-ELECTRON SYSTEM (eV)
  ---------------------------------------------------
  free  energy   TOTEN  =       -14.21624977 eV

  energy  without entropy=      -14.21624977  energy(sigma->0) =      -14.21624977
 


--------------------------------------------------------------------------------------------------------


    POTLOK:  cpu time      0.2643: real time      0.2650


--------------------------------------------------------------------------------------------------------


 Quasi-Newton relaxation of ions (Broydens 2nd method)
  g(Force)  = 0.756E-01   g(Stress)= 0.000E+00

 Reset! Starting new Quasi-Newton update for ions 


--------------------------------------------------------------------------------------------------------


    WAVPRE:  cpu time      0.9146: real time      0.9317
    FEWALD:  cpu time      0.0003: real time      0.0003
    ORTHCH:  cpu time      0.0022: real time      0.0023
     LOOP+:  cpu time      5.8738: real time      5.9066


--------------------------------------- Iteration      2(   1)  ---------------------------------------


    POTLOK:  cpu time      0.2512: real time      0.2520
    SETDIJ:  cpu time      0.0022: real time      0.0022
     EDDAV:  cpu time      0.0569: real time      0.0570
       DOS:  cpu time      0.0001: real time      0.0001
    CHARGE:  cpu time      0.0257: real time      0.0258
    MIXING:  cpu time      0.0177: real time      0.0177
    --------------------------------------------
      LOOP:  cpu time      0.3538: real time      0.3549

 eigenvalue-minimisations  :    16
 total energy-change (2. order) : 0.3352178E-02  (-0.1606423E+00)
 number of electron       7.9999981 magnetization 
 augmentation part        0.6708973 magnetization 

 Broyden mixing:
  rms(total) = 0.83193E-01    rms(broyden)= 0.83174E-01
  rms(prec ) = 0.11332E+00
  weight for this iteration     100.00

 Free energy of the ion-electron system (eV)
  ---------------------------------------------------
  alpha Z        PSCENC =         0.44832783
  Ewald energy   TEWEN  =        18.51379865
  -Hartree energ DENC   =      -417.34736547
  -exchange      EXHF   =         0.00000000
  -V(xc)+E(xc)   XCENC  =        34.00686810
  PAW double counting   =       330.07650433     -332.24129861
  entropy T*S    EENTRO =        -0.00000000
  eigenvalues    EBANDS =      -105.00761493
  atomic energy  EATOM  =       457.33795725
  Solvation  Ediel_sol  =         0.00000000
  ---------------------------------------------------
  free energy    TOTEN  =       -14.21282287 eV

  energy without entropy =      -14.21282287  energy(sigma->0) =      -14.21282287


--------------------------------------------------------------------------------------------------------




--------------------------------------- Iteration      2(   2)  ---------------------------------------


    POTLOK:  cpu time      0.2448: real time      0.2455
    SETDIJ:  cpu time      0.0021: real time      0.0021
     EDDAV:  cpu time      0.0816: real time      0.0818
       DOS:  cpu time      0.0001: real time      0.0001
    CHARGE:  cpu time      0.0209: real time      0.0209
    MIXING:  cpu time      0.0137: real time      0.0137
    --------------------------------------------
      LOOP:  cpu time      0.3631: real time      0.3642

 eigenvalue-minimisations  :    32
 total energy-change (2. order) : 0.1235270E-01  (-0.7948532E-02)
 number of electron       7.9999980 magnetization 
 augmentation part        0.6795901 magnetization 

 Broyden mixing:
  rms(total) = 0.30466E-01    rms(broyden)= 0.30450E-01
  rms(prec ) = 0.35852E-01
  weight for this iteration     100.00

 eigenvalues of (default mixing * dielectric matrix)
  average eigenvalue GAMMA=   1.1549
  1.1549

 Free energy of the ion-electron system (eV)
  ---------------------------------------------------
  alpha Z        PSCENC =         0.44832783
  Ewald energy   TEWEN  =        18.51379865
  -Hartree energ DENC   =      -415.39620835
  -exchange      EXHF   =         0.00000000
  -V(xc)+E(xc)   XCENC  =        33.89740624
  PAW double counting   =       323.45029940     -325.57946926
  entropy T*S    EENTRO =        -0.00000000
  eigenvalues    EBANDS =      -106.87258190
  atomic energy  EATOM  =       457.33795725
  Solvation  Ediel_sol  =         0.00000000
  ---------------------------------------------------
  free energy    TOTEN  =       -14.20047016 eV

  energy without entropy =      -14.20047016  energy(sigma->0) =      -14.20047016


--------------------------------------------------------------------------------------------------------




--------------------------------------- Iteration      2(   3)  ---------------------------------------


    POTLOK:  cpu time      0.2196: real time      0.2204
    SETDIJ:  cpu time      0.0020: real time      0.0020
     EDDAV:  cpu time      0.0638: real time      0.0639
       DOS:  cpu time      0.0001: real time      0.0001
    CHARGE:  cpu time      0.0216: real time      0.0217
    MIXING:  cpu time      0.0101: real time      0.0101
    --------------------------------------------
      LOOP:  cpu time      0.3171: real time      0.3181

 eigenvalue-minimisations  :    24
 total energy-change (2. order) : 0.5249854E-03  (-0.1170946E-03)
 number of electron       7.9999980 magnetization 
 augmentation part        0.6805385 magnetization 

 Broyden mixing:
  rms(total) = 0.15635E-01    rms(broyden)= 0.15633E-01
  rms(prec ) = 0.18289E-01
  weight for this iteration     100.00

 eigenvalues of (default mixing * dielectric matrix)
  average eigenvalue GAMMA=   1.6535
  1.0952  2.2118

 Free energy of the ion-electron system (eV)
  ---------------------------------------------------
  alpha Z        PSCENC =         0.44832783
  Ewald energy   TEWEN  =        18.51379865
  -Hartree energ DENC   =      -415.22963311
  -exchange      EXHF   =         0.00000000
  -V(xc)+E(xc)   XCENC  =        33.88897738
  PAW double counting   =       321.04237303     -323.16149424
  entropy T*S    EENTRO =        -0.00000000
  eigenvalues    EBANDS =      -107.04025195
  atomic energy  EATOM  =       457.33795725
  Solvation  Ediel_sol  =         0.00000000
  ---------------------------------------------------
  free energy    TOTEN  =       -14.19994518 eV

  energy without entropy =      -14.19994518  energy(sigma->0) =      -14.19994518


--------------------------------------------------------------------------------------------------------




--------------------------------------- Iteration      2(   4)  ---------------------------------------


    POTLOK:  cpu time      0.2487: real time      0.2496
    SETDIJ:  cpu time      0.0019: real time      0.0019
     EDDAV:  cpu time      0.0674: real time      0.0676
       DOS:  cpu time      0.0001: real time      0.0001
    --------------------------------------------
      LOOP:  cpu time      0.3182: real time      0.3192

 eigenvalue-minimisations  :    24
 total energy-change (2. order) : 0.6998255E-04  (-0.5946851E-04)
 number of electron       7.9999980 magnetization 
 augmentation part        0.6805385 magnetization 

 Free energy of the ion-electron system (eV)
  ---------------------------------------------------
  alpha Z        PSCENC =         0.44832783
  Ewald energy   TEWEN  =        18.51379865
  -Hartree energ DENC   =      -415.26852427
  -exchange      EXHF   =         0.00000000
  -V(xc)+E(xc)   XCENC  =        33.89178980
  PAW double counting   =       318.89405022     -321.00629189
  entropy T*S    EENTRO =        -0.00000000
  eigenvalues    EBANDS =      -107.01098278
  atomic energy  EATOM  =       457.33795725
  Solvation  Ediel_sol  =         0.00000000
  ---------------------------------------------------
  free energy    TOTEN  =       -14.19987520 eV

  energy without entropy =      -14.19987520  energy(sigma->0) =      -14.19987520


--------------------------------------------------------------------------------------------------------




 average (electrostatic) potential at core
  the test charge radii are     0.7215  0.5201
  (the norm of the test charge is              1.0000)
       1 -80.3532       2 -44.2192       3 -44.2192
 
 
 
 E-fermi :  -6.4806     XC(G=0):  -1.0087     alpha+bet : -0.2602

 Fermi energy:        -6.4806402711

 k-point     1 :       0.0000    0.0000    0.0000
  band No.  band energies     occupation 
      1     -24.8255      2.00000
      2     -12.7030      2.00000
      3      -9.0199      2.00000
      4      -6.9571      2.00000
      5      -1.1585      0.00000
      6       1.1162      0.00000
      7       1.1291      0.00000
      8       1.7268      0.00000


--------------------------------------------------------------------------------------------------------


 soft charge-density along one line, spin component           1
         0         1         2         3         4         5         6         7         8         9
 total charge-density along one line
 
 pseudopotential strength for first ion, spin component:           1
 13.774  -0.523  -0.000   0.000  -0.115   0.000  -0.000   0.006
 -0.523   0.119   0.000  -0.000   0.015  -0.000   0.000  -0.002
 -0.000   0.000 -10.541   0.000  -0.000   0.289  -0.000   0.000
  0.000  -0.000   0.000 -10.311  -0.000  -0.000   0.250   0.000
 -0.115   0.015  -0.000  -0.000 -10.448   0.000   0.000   0.273
  0.000  -0.000   0.289  -0.000   0.000   0.128   0.000  -0.000
 -0.000   0.000  -0.000   0.250   0.000   0.000   0.139  -0.000
  0.006  -0.002   0.000   0.000   0.273  -0.000  -0.000   0.132
 total augmentation occupancy for first ion, spin component:           1
  1.849   0.147   0.000   0.000  -0.176   0.000   0.000   0.052
  0.147   0.035   0.000   0.000   0.175   0.000   0.000   0.028
  0.000   0.000   1.383   0.000   0.000   0.250   0.000   0.000
  0.000   0.000   0.000   1.810   0.000   0.000   0.090   0.000
 -0.176   0.175   0.000   0.000   1.546   0.000   0.000   0.189
  0.000   0.000   0.250   0.000   0.000   0.045   0.000   0.000
  0.000   0.000   0.000   0.090   0.000   0.000   0.004   0.000
  0.052   0.028   0.000   0.000   0.189   0.000   0.000   0.026


------------------------ aborting loop because EDIFF is reached ----------------------------------------


    CHARGE:  cpu time      0.0213: real time      0.0214
    FORLOC:  cpu time      0.0248: real time      0.0249
    FORNL :  cpu time      0.0049: real time      0.0049
    STRESS:  cpu time      0.0425: real time      0.0426
    FORHAR:  cpu time      0.0672: real time      0.0674
    MIXING:  cpu time      0.0140: real time      0.0140
    OFIELD:  cpu time      0.0000: real time      0.0000

  FORCE on cell =-STRESS in cart. coord.  units (eV):
  Direction    XX          YY          ZZ          XY          YZ          ZX
  --------------------------------------------------------------------------------------
  Alpha Z     0.44833     0.44833     0.44833
  Ewald       9.56389    64.27738   -55.32751    -0.00000    -0.00000    -0.00000
  Hartree   139.17104   149.11320   126.91884    -0.00000    -0.00000    -0.00000
  E(xc)     -35.92128   -35.71492   -36.21140    -0.00000    -0.00000    -0.00000
  Local    -238.28955  -288.34361  -180.78073     0.00000    -0.00000    -0.00000
  n-local   -30.41227   -29.59067   -30.54070    -0.00000    -0.00000     0.00002
  augment     6.68498     5.74133     8.09971     0.00000     0.00000     0.00000
  Kinetic   147.91036   132.41072   167.32421    -0.00000    -0.00000    -0.00002
  Fock        0.00000     0.00000     0.00000     0.00000     0.00000     0.00000
  -------------------------------------------------------------------------------------
  Total      -0.84452    -1.65824    -0.06925     0.00000     0.00000     0.00000
  in kB      -2.70542    -5.31220    -0.22184     0.00000     0.00000     0.00000
  external pressure =       -2.75 kB  Pullay stress =        0.00 kB


 VOLUME and BASIS-vectors are now :
 -----------------------------------------------------------------------------
  energy-cutoff  :      600.00
  volume of cell :      500.13
      direct lattice vectors                 reciprocal lattice vectors
     7.937700000  0.000000000  0.000000000     0.125981078  0.000000000  0.000000000
     0.000000000  7.937700000  0.000000000     0.000000000  0.125981078  0.000000000
     0.000000000  0.000000000  7.937700000     0.000000000  0.000000000  0.125981078

  length of vectors
     7.937700000  7.937700000  7.937700000     0.125981078  0.125981078  0.125981078


 FORCES acting on ions
    electron-ion (+dipol)            ewald-force                    non-local-force                 convergence-correction
 -----------------------------------------------------------------------------------------------
   0.584E+02 0.753E-15 0.604E-15   -.105E+03 -.142E-13 0.213E-16   0.478E+02 0.146E-24 -.137E-20   -.891E-01 0.108E-13 0.155E-13
   -.487E+02 0.687E+02 0.145E-06   0.525E+02 -.739E+02 0.134E-16   -.439E+01 0.619E+01 0.246E-21   -.845E-02 0.298E-02 0.560E-15
   -.487E+02 -.687E+02 0.343E-07   0.525E+02 0.739E+02 0.115E-16   -.439E+01 -.619E+01 0.320E-22   -.845E-02 -.298E-02 0.160E-14
 -----------------------------------------------------------------------------------------------
   -.389E+02 0.853E-13 0.179E-06   0.000E+00 0.000E+00 0.461E-16   0.390E+02 -.178E-14 -.109E-20   -.106E+00 0.107E-13 0.176E-13
 
 
 POSITION                                       TOTAL-FORCE (eV/Angst)
 -----------------------------------------------------------------------------------
      0.00000      0.00000      0.00000         1.221314     -0.000000     -0.000000
      0.60731      7.14649      0.00000        -0.610657      0.996376      0.000000
      0.60731      0.79121      0.00000        -0.610657     -0.996376     -0.000000
 -----------------------------------------------------------------------------------
    total drift:                                0.028561      0.000000      0.000000


--------------------------------------------------------------------------------------------------------



  FREE ENERGIE OF THE ION-ELECTRON SYSTEM (eV)
  ---------------------------------------------------
  free  energy   TOTEN  =       -14.19987520 eV

  energy  without entropy=      -14.19987520  energy(sigma->0) =      -14.19987520
 
 d Force =-0.1193184E-01[-0.995E-01, 0.756E-01]  d Energy =-0.1637457E-01 0.444E-02
 d Force = 0.8097092E+01[ 0.774E+01, 0.846E+01]  d Ewald  = 0.8089269E+01 0.782E-02


--------------------------------------------------------------------------------------------------------


    POTLOK:  cpu time      0.2281: real time      0.2287


--------------------------------------------------------------------------------------------------------


 Quasi-Newton relaxation of ions (Broydens 2nd method)
  g(Force)  = 0.132E+00   g(Stress)= 0.000E+00

 retain information from N=  1 steps
 eigenvalues of (default step * inverse Hessian matrix)
  average eigenvalue of G=   0.4309
 eigenvalue spectrum of G is  0.4309


--------------------------------------------------------------------------------------------------------


    WAVPRE:  cpu time      0.0649: real time      0.0653
    FEWALD:  cpu time      0.0002: real time      0.0002
    ORTHCH:  cpu time      0.0014: real time      0.0016
     LOOP+:  cpu time      1.8251: real time      1.8312


--------------------------------------- Iteration      3(   1)  ---------------------------------------


    POTLOK:  cpu time      0.2207: real time      0.2213
    SETDIJ:  cpu time      0.0021: real time      0.0021
     EDDAV:  cpu time      0.0475: real time      0.0476
       DOS:  cpu time      0.0001: real time      0.0001
    CHARGE:  cpu time      0.0204: real time      0.0204
    MIXING:  cpu time      0.0089: real time      0.0089
    --------------------------------------------
      LOOP:  cpu time      0.2997: real time      0.3005

 eigenvalue-minimisations  :    16
 total energy-change (2. order) :-0.3477510E-01  (-0.5214805E-01)
 number of electron       7.9999984 magnetization 
 augmentation part        0.6957443 magnetization 

 Broyden mixing:
  rms(total) = 0.44013E-01    rms(broyden)= 0.44003E-01
  rms(prec ) = 0.59981E-01
  weight for this iteration     100.00

 Free energy of the ion-electron system (eV)
  ---------------------------------------------------
  alpha Z        PSCENC =         0.44832783
  Ewald energy   TEWEN  =        23.01593283
  -Hartree energ DENC   =      -417.61441628
  -exchange      EXHF   =         0.00000000
  -V(xc)+E(xc)   XCENC  =        34.00603514
  PAW double counting   =       318.56357173     -320.67373731
  entropy T*S    EENTRO =        -0.00000000
  eigenvalues    EBANDS =      -109.31839148
  atomic energy  EATOM  =       457.33795725
  Solvation  Ediel_sol  =         0.00000000
  ---------------------------------------------------
  free energy    TOTEN  =       -14.23472028 eV

  energy without entropy =      -14.23472028  energy(sigma->0) =      -14.23472028


--------------------------------------------------------------------------------------------------------




--------------------------------------- Iteration      3(   2)  ---------------------------------------


    POTLOK:  cpu time      0.2338: real time      0.2345
    SETDIJ:  cpu time      0.0020: real time      0.0020
     EDDAV:  cpu time      0.0636: real time      0.0637
       DOS:  cpu time      0.0001: real time      0.0001
    CHARGE:  cpu time      0.0198: real time      0.0199
    MIXING:  cpu time      0.0091: real time      0.0091
    --------------------------------------------
      LOOP:  cpu time      0.3284: real time      0.3294

 eigenvalue-minimisations  :    24
 total energy-change (2. order) : 0.3540143E-02  (-0.2085274E-02)
 number of electron       7.9999984 magnetization 
 augmentation part        0.6916454 magnetization 

 Broyden mixing:
  rms(total) = 0.17527E-01    rms(broyden)= 0.17519E-01
  rms(prec ) = 0.20937E-01
  weight for this iteration     100.00

 eigenvalues of (default mixing * dielectric matrix)
  average eigenvalue GAMMA=   1.2270
  1.2270

 Free energy of the ion-electron system (eV)
  ---------------------------------------------------
  alpha Z        PSCENC =         0.44832783
  Ewald energy   TEWEN  =        23.01593283
  -Hartree energ DENC   =      -418.64445667
  -exchange      EXHF   =         0.00000000
  -V(xc)+E(xc)   XCENC  =        34.06331473
  PAW double counting   =       322.04260807     -324.17182879
  entropy T*S    EENTRO =        -0.00000000
  eigenvalues    EBANDS =      -108.32303539
  atomic energy  EATOM  =       457.33795725
  Solvation  Ediel_sol  =         0.00000000
  ---------------------------------------------------
  free energy    TOTEN  =       -14.23118013 eV

  energy without entropy =      -14.23118013  energy(sigma->0) =      -14.23118013


--------------------------------------------------------------------------------------------------------




--------------------------------------- Iteration      3(   3)  ---------------------------------------


    POTLOK:  cpu time      0.2347: real time      0.2354
    SETDIJ:  cpu time      0.0019: real time      0.0019
     EDDAV:  cpu time      0.0460: real time      0.0461
       DOS:  cpu time      0.0001: real time      0.0001
    CHARGE:  cpu time      0.0198: real time      0.0199
    MIXING:  cpu time      0.0093: real time      0.0093
    --------------------------------------------
      LOOP:  cpu time      0.3118: real time      0.3128

 eigenvalue-minimisations  :    16
 total energy-change (2. order) : 0.1786241E-03  (-0.8545139E-04)
 number of electron       7.9999984 magnetization 
 augmentation part        0.6906377 magnetization 

 Broyden mixing:
  rms(total) = 0.84418E-02    rms(broyden)= 0.84400E-02
  rms(prec ) = 0.98694E-02
  weight for this iteration     100.00

 eigenvalues of (default mixing * dielectric matrix)
  average eigenvalue GAMMA=   1.6186
  1.2238  2.0133

 Free energy of the ion-electron system (eV)
  ---------------------------------------------------
  alpha Z        PSCENC =         0.44832783
  Ewald energy   TEWEN  =        23.01593283
  -Hartree energ DENC   =      -418.81536961
  -exchange      EXHF   =         0.00000000
  -V(xc)+E(xc)   XCENC  =        34.07215377
  PAW double counting   =       323.53472047     -325.67064864
  entropy T*S    EENTRO =        -0.00000000
  eigenvalues    EBANDS =      -108.15407540
  atomic energy  EATOM  =       457.33795725
  Solvation  Ediel_sol  =         0.00000000
  ---------------------------------------------------
  free energy    TOTEN  =       -14.23100151 eV

  energy without entropy =      -14.23100151  energy(sigma->0) =      -14.23100151


--------------------------------------------------------------------------------------------------------




--------------------------------------- Iteration      3(   4)  ---------------------------------------


    POTLOK:  cpu time      0.2314: real time      0.2321
    SETDIJ:  cpu time      0.0020: real time      0.0020
     EDDAV:  cpu time      0.0494: real time      0.0495
       DOS:  cpu time      0.0001: real time      0.0001
    --------------------------------------------
      LOOP:  cpu time      0.2829: real time      0.2837

 eigenvalue-minimisations  :    16
 total energy-change (2. order) :-0.5362966E-05  (-0.2378808E-04)
 number of electron       7.9999984 magnetization 
 augmentation part        0.6906377 magnetization 

 Free energy of the ion-electron system (eV)
  ---------------------------------------------------
  alpha Z        PSCENC =         0.44832783
  Ewald energy   TEWEN  =        23.01593283
  -Hartree energ DENC   =      -418.76068170
  -exchange      EXHF   =         0.00000000
  -V(xc)+E(xc)   XCENC  =        34.06874937
  PAW double counting   =       324.47776299     -326.61582748
  entropy T*S    EENTRO =        -0.00000000
  eigenvalues    EBANDS =      -108.20322796
  atomic energy  EATOM  =       457.33795725
  Solvation  Ediel_sol  =         0.00000000
  ---------------------------------------------------
  free energy    TOTEN  =       -14.23100687 eV

  energy without entropy =      -14.23100687  energy(sigma->0) =      -14.23100687


--------------------------------------------------------------------------------------------------------




 average (electrostatic) potential at core
  the test charge radii are     0.7215  0.5201
  (the norm of the test charge is              1.0000)
       1 -80.3895       2 -44.5099       3 -44.5099
 
 
 
 E-fermi :  -6.5548     XC(G=0):  -1.0327     alpha+bet : -0.2602

 Fermi energy:        -6.5547791075

 k-point     1 :       0.0000    0.0000    0.0000
  band No.  band energies     occupation 
      1     -25.0975      2.00000
      2     -12.9131      2.00000
      3      -9.0762      2.00000
      4      -7.0148      2.00000
      5      -1.0867      0.00000
      6       1.1241      0.00000
      7       1.2299      0.00000
      8       1.7412      0.00000


--------------------------------------------------------------------------------------------------------


 soft charge-density along one line, spin component           1
         0         1         2         3         4         5         6         7         8         9
 total charge-density along one line
 
 pseudopotential strength for first ion, spin component:           1
 13.778  -0.523  -0.000  -0.000  -0.121   0.000   0.000   0.006
 -0.523   0.119   0.000   0.000   0.015  -0.000  -0.000  -0.002
 -0.000   0.000 -10.549   0.000  -0.000   0.289  -0.000   0.000
 -0.000   0.000   0.000 -10.310  -0.000  -0.000   0.248   0.000
 -0.121   0.015  -0.000  -0.000 -10.452   0.000   0.000   0.272
  0.000  -0.000   0.289  -0.000   0.000   0.128   0.000  -0.000
  0.000  -0.000  -0.000   0.248   0.000   0.000   0.140  -0.000
  0.006  -0.002   0.000   0.000   0.272  -0.000  -0.000   0.133
 total augmentation occupancy for first ion, spin component:           1
  1.845   0.159   0.000   0.000  -0.168   0.000   0.000   0.057
  0.159   0.037   0.000   0.000   0.178   0.000   0.000   0.030
  0.000   0.000   1.407   0.000   0.000   0.260   0.000   0.000
  0.000   0.000   0.000   1.809   0.000   0.000   0.093   0.000
 -0.168   0.178   0.000   0.000   1.567   0.000   0.000   0.195
  0.000   0.000   0.260   0.000   0.000   0.048   0.000   0.000
  0.000   0.000   0.000   0.093   0.000   0.000   0.005   0.000
  0.057   0.030   0.000   0.000   0.195   0.000   0.000   0.028


------------------------ aborting loop because EDIFF is reached ----------------------------------------


    CHARGE:  cpu time      0.0204: real time      0.0205
    FORLOC:  cpu time      0.0226: real time      0.0226
    FORNL :  cpu time      0.0047: real time      0.0048
    STRESS:  cpu time      0.0414: real time      0.0415
    FORHAR:  cpu time      0.0674: real time      0.0676
    MIXING:  cpu time      0.0098: real time      0.0098
    OFIELD:  cpu time      0.0000: real time      0.0000

  FORCE on cell =-STRESS in cart. coord.  units (eV):
  Direction    XX          YY          ZZ          XY          YZ          ZX
  --------------------------------------------------------------------------------------
  Alpha Z     0.44833     0.44833     0.44833
  Ewald      11.59925    66.72466   -55.30802     0.00000    -0.00000     0.00000
  Hartree   140.51267   150.10415   128.24555    -0.00000    -0.00000    -0.00000
  E(xc)     -36.10233   -35.90166   -36.39487     0.00000     0.00000    -0.00000
  Local    -241.21508  -290.65917  -182.46714    -0.00000    -0.00000    -0.00000
  n-local   -30.97947   -30.17853   -30.83189    -0.00000    -0.00000    -0.00000
  augment     6.75575     5.78243     8.17105    -0.00000     0.00000     0.00000
  Kinetic   148.89699   133.53800   168.14870     0.00000     0.00000     0.00003
  Fock        0.00000     0.00000     0.00000     0.00000     0.00000     0.00000
  -------------------------------------------------------------------------------------
  Total      -0.08389    -0.14179     0.01172     0.00000     0.00000     0.00000
  in kB      -0.26873    -0.45423     0.03755     0.00000     0.00000     0.00000
  external pressure =       -0.23 kB  Pullay stress =        0.00 kB


 VOLUME and BASIS-vectors are now :
 -----------------------------------------------------------------------------
  energy-cutoff  :      600.00
  volume of cell :      500.13
      direct lattice vectors                 reciprocal lattice vectors
     7.937700000  0.000000000  0.000000000     0.125981078  0.000000000  0.000000000
     0.000000000  7.937700000  0.000000000     0.000000000  0.125981078  0.000000000
     0.000000000  0.000000000  7.937700000     0.000000000  0.000000000  0.125981078

  length of vectors
     7.937700000  7.937700000  7.937700000     0.125981078  0.125981078  0.125981078


 FORCES acting on ions
    electron-ion (+dipol)            ewald-force                    non-local-force                 convergence-correction
 -----------------------------------------------------------------------------------------------
   0.618E+02 -.157E-15 0.891E-15   -.111E+03 0.142E-13 0.489E-16   0.488E+02 0.248E-28 -.132E-20   0.301E-01 0.214E-13 0.462E-14
   -.505E+02 0.709E+02 -.209E-07   0.553E+02 -.775E+02 -.476E-18   -.483E+01 0.673E+01 -.399E-22   0.815E-02 -.638E-02 -.216E-15
   -.505E+02 -.709E+02 0.202E-06   0.553E+02 0.775E+02 -.225E-17   -.483E+01 -.673E+01 0.609E-22   0.815E-02 0.638E-02 0.222E-15
 -----------------------------------------------------------------------------------------------
   -.392E+02 0.711E-13 0.181E-06   0.000E+00 0.000E+00 0.461E-16   0.391E+02 0.000E+00 -.130E-20   0.464E-01 0.221E-13 0.462E-14
 
 
 POSITION                                       TOTAL-FORCE (eV/Angst)
 -----------------------------------------------------------------------------------
      0.00000      0.00000      0.00000         0.041395     -0.000000      0.000000
      0.59461      7.16721      0.00000        -0.020698      0.080035      0.000000
      0.59461      0.77049      0.00000        -0.020698     -0.080035     -0.000000
 -----------------------------------------------------------------------------------
    total drift:                               -0.013201      0.000000      0.000000


--------------------------------------------------------------------------------------------------------



  FREE ENERGIE OF THE ION-ELECTRON SYSTEM (eV)
  ---------------------------------------------------
  free  energy   TOTEN  =       -14.23100687 eV

  energy  without entropy=      -14.23100687  energy(sigma->0) =      -14.23100687
 
 d Force = 0.3031281E-01[ 0.384E-02, 0.568E-01]  d Energy = 0.3113168E-01-0.819E-03
 d Force =-0.4503491E+01[-0.462E+01,-0.439E+01]  d Ewald  =-0.4502134E+01-0.136E-02


--------------------------------------------------------------------------------------------------------


    POTLOK:  cpu time      0.2310: real time      0.2316


--------------------------------------------------------------------------------------------------------


 Quasi-Newton relaxation of ions (Broydens 2nd method)
  g(Force)  = 0.659E-03   g(Stress)= 0.000E+00

 retain information from N=  1 steps
 eigenvalues of (default step * inverse Hessian matrix)
  average eigenvalue of G=   0.4620
 eigenvalue spectrum of G is  0.4620


--------------------------------------------------------------------------------------------------------


    WAVPRE:  cpu time      0.0641: real time      0.0644
    FEWALD:  cpu time      0.0002: real time      0.0002
    ORTHCH:  cpu time      0.0015: real time      0.0016
     LOOP+:  cpu time      1.6891: real time      1.6943


--------------------------------------- Iteration      4(   1)  ---------------------------------------


    POTLOK:  cpu time      0.2423: real time      0.2431
    SETDIJ:  cpu time      0.0021: real time      0.0021
     EDDAV:  cpu time      0.0812: real time      0.0814
       DOS:  cpu time      0.0001: real time      0.0001
    CHARGE:  cpu time      0.0215: real time      0.0215
    MIXING:  cpu time      0.0088: real time      0.0088
    --------------------------------------------
      LOOP:  cpu time      0.3560: real time      0.3571

 eigenvalue-minimisations  :    32
 total energy-change (2. order) :-0.1747714E-03  (-0.3372671E-03)
 number of electron       7.9999984 magnetization 
 augmentation part        0.6918044 magnetization 

 Broyden mixing:
  rms(total) = 0.30719E-02    rms(broyden)= 0.30708E-02
  rms(prec ) = 0.41265E-02
  weight for this iteration     100.00

 Free energy of the ion-electron system (eV)
  ---------------------------------------------------
  alpha Z        PSCENC =         0.44832783
  Ewald energy   TEWEN  =        23.33739009
  -Hartree energ DENC   =      -418.97303122
  -exchange      EXHF   =         0.00000000
  -V(xc)+E(xc)   XCENC  =        34.07950672
  PAW double counting   =       324.78379506     -326.92369684
  entropy T*S    EENTRO =        -0.00000000
  eigenvalues    EBANDS =      -108.32142516
  atomic energy  EATOM  =       457.33795725
  Solvation  Ediel_sol  =         0.00000000
  ---------------------------------------------------
  free energy    TOTEN  =       -14.23117628 eV

  energy without entropy =      -14.23117628  energy(sigma->0) =      -14.23117628


--------------------------------------------------------------------------------------------------------




--------------------------------------- Iteration      4(   2)  ---------------------------------------


    POTLOK:  cpu time      0.2457: real time      0.2465
    SETDIJ:  cpu time      0.0020: real time      0.0020
     EDDAV:  cpu time      0.0662: real time      0.0663
       DOS:  cpu time      0.0001: real time      0.0001
    --------------------------------------------
      LOOP:  cpu time      0.3139: real time      0.3148

 eigenvalue-minimisations  :    24
 total energy-change (2. order) : 0.8433089E-05  (-0.1044590E-04)
 number of electron       7.9999984 magnetization 
 augmentation part        0.6918044 magnetization 

 Free energy of the ion-electron system (eV)
  ---------------------------------------------------
  alpha Z        PSCENC =         0.44832783
  Ewald energy   TEWEN  =        23.33739009
  -Hartree energ DENC   =      -419.03602957
  -exchange      EXHF   =         0.00000000
  -V(xc)+E(xc)   XCENC  =        34.08302622
  PAW double counting   =       325.02910253     -327.16997441
  entropy T*S    EENTRO =        -0.00000000
  eigenvalues    EBANDS =      -108.26096779
  atomic energy  EATOM  =       457.33795725
  Solvation  Ediel_sol  =         0.00000000
  ---------------------------------------------------
  free energy    TOTEN  =       -14.23116785 eV

  energy without entropy =      -14.23116785  energy(sigma->0) =      -14.23116785


--------------------------------------------------------------------------------------------------------




 average (electrostatic) potential at core
  the test charge radii are     0.7215  0.5201
  (the norm of the test charge is              1.0000)
       1 -80.3836       2 -44.5336       3 -44.5336
 
 
 
 E-fermi :  -6.5537     XC(G=0):  -1.0266     alpha+bet : -0.2602

 Fermi energy:        -6.5536713831

 k-point     1 :       0.0000    0.0000    0.0000
  band No.  band energies     occupation 
      1     -25.1159      2.00000
      2     -12.9176      2.00000
      3      -9.0820      2.00000
      4      -7.0150      2.00000
      5      -1.0765      0.00000
      6       1.1210      0.00000
      7       1.2369      0.00000
      8       1.7510      0.00000


--------------------------------------------------------------------------------------------------------


 soft charge-density along one line, spin component           1
         0         1         2         3         4         5         6         7         8         9
 total charge-density along one line
 
 pseudopotential strength for first ion, spin component:           1
 13.777  -0.523  -0.000  -0.000  -0.121   0.000   0.000   0.006
 -0.523   0.119   0.000   0.000   0.015  -0.000  -0.000  -0.002
 -0.000   0.000 -10.548  -0.000  -0.000   0.288   0.000   0.000
 -0.000   0.000  -0.000 -10.309   0.000   0.000   0.248  -0.000
 -0.121   0.015  -0.000   0.000 -10.450   0.000  -0.000   0.272
  0.000  -0.000   0.288   0.000   0.000   0.128  -0.000  -0.000
  0.000  -0.000   0.000   0.248  -0.000  -0.000   0.140   0.000
  0.006  -0.002   0.000  -0.000   0.272  -0.000   0.000   0.133
 total augmentation occupancy for first ion, spin component:           1
  1.846   0.159   0.000   0.000  -0.168   0.000   0.000   0.058
  0.159   0.038   0.000   0.000   0.179   0.000   0.000   0.030
  0.000   0.000   1.409   0.000   0.000   0.260   0.000   0.000
  0.000   0.000   0.000   1.810   0.000   0.000   0.093   0.000
 -0.168   0.179   0.000   0.000   1.569   0.000   0.000   0.196
  0.000   0.000   0.260   0.000   0.000   0.048   0.000   0.000
  0.000   0.000   0.000   0.093   0.000   0.000   0.005   0.000
  0.058   0.030   0.000   0.000   0.196   0.000   0.000   0.028


------------------------ aborting loop because EDIFF is reached ----------------------------------------


    CHARGE:  cpu time      0.0199: real time      0.0200
    FORLOC:  cpu time      0.0249: real time      0.0250
    FORNL :  cpu time      0.0050: real time      0.0050
    STRESS:  cpu time      0.0415: real time      0.0416
    FORHAR:  cpu time      0.0667: real time      0.0668
    MIXING:  cpu time      0.0092: real time      0.0093
    OFIELD:  cpu time      0.0000: real time      0.0000

  FORCE on cell =-STRESS in cart. coord.  units (eV):
  Direction    XX          YY          ZZ          XY          YZ          ZX
  --------------------------------------------------------------------------------------
  Alpha Z     0.44833     0.44833     0.44833
  Ewald      11.96628    66.67767   -55.30661     0.00000    -0.00000    -0.00000
  Hartree   140.62294   150.10517   128.30924    -0.00000    -0.00000    -0.00000
  E(xc)     -36.11597   -35.91827   -36.41001     0.00000     0.00000    -0.00000
  Local    -241.61322  -290.59928  -182.58098    -0.00000     0.00000     0.00000
  n-local   -31.01846   -30.20898   -30.84870    -0.00000    -0.00000    -0.00001
  augment     6.75097     5.78230     8.17027     0.00000     0.00000     0.00000
  Kinetic   148.88740   133.65419   168.19063     0.00000    -0.00000     0.00003
  Fock        0.00000     0.00000     0.00000     0.00000     0.00000     0.00000
  -------------------------------------------------------------------------------------
  Total      -0.07173    -0.05888    -0.02784     0.00000     0.00000     0.00000
  in kB      -0.22980    -0.18862    -0.08917     0.00000     0.00000     0.00000
  external pressure =       -0.17 kB  Pullay stress =        0.00 kB


 VOLUME and BASIS-vectors are now :
 -----------------------------------------------------------------------------
  energy-cutoff  :      600.00
  volume of cell :      500.13
      direct lattice vectors                 reciprocal lattice vectors
     7.937700000  0.000000000  0.000000000     0.125981078  0.000000000  0.000000000
     0.000000000  7.937700000  0.000000000     0.000000000  0.125981078  0.000000000
     0.000000000  0.000000000  7.937700000     0.000000000  0.000000000  0.125981078

  length of vectors
     7.937700000  7.937700000  7.937700000     0.125981078  0.125981078  0.125981078


 FORCES acting on ions
    electron-ion (+dipol)            ewald-force                    non-local-force                 convergence-correction
 -----------------------------------------------------------------------------------------------
   0.623E+02 0.205E-15 -.904E-16   -.111E+03 0.284E-13 0.662E-16   0.489E+02 -.151E-25 -.342E-20   -.322E-01 -.577E-14 -.405E-13
   -.507E+02 0.709E+02 -.276E-07   0.556E+02 -.777E+02 -.958E-17   -.487E+01 0.676E+01 -.924E-22   0.823E-03 -.217E-02 -.519E-14
   -.507E+02 -.709E+02 0.210E-06   0.556E+02 0.777E+02 -.105E-16   -.487E+01 -.676E+01 0.519E-22   0.823E-03 0.217E-02 -.289E-14
 -----------------------------------------------------------------------------------------------
   -.392E+02 0.568E-13 0.183E-06   -.711E-14 0.000E+00 0.461E-16   0.392E+02 0.000E+00 -.346E-20   -.305E-01 -.593E-14 -.486E-13
 
 
 POSITION                                       TOTAL-FORCE (eV/Angst)
 -----------------------------------------------------------------------------------
      0.00000      0.00000      0.00000        -0.029906      0.000000     -0.000000
      0.59475      7.16937      0.00000         0.014953     -0.001248     -0.000000
      0.59475      0.76833      0.00000         0.014953      0.001248      0.000000
 -----------------------------------------------------------------------------------
    total drift:                               -0.001201      0.000000      0.000000


--------------------------------------------------------------------------------------------------------



  FREE ENERGIE OF THE ION-ELECTRON SYSTEM (eV)
  ---------------------------------------------------
  free  energy   TOTEN  =       -14.23116785 eV

  energy  without entropy=      -14.23116785  energy(sigma->0) =      -14.23116785
 
 d Force = 0.1701041E-03[-0.131E-05, 0.342E-03]  d Energy = 0.1609753E-03 0.913E-05
 d Force =-0.3214573E+00[-0.322E+00,-0.321E+00]  d Ewald  =-0.3214573E+00-0.349E-07


--------------------------------------------------------------------------------------------------------


    POTLOK:  cpu time      0.2361: real time      0.2368


--------------------------------------------------------------------------------------------------------


 Quasi-Newton relaxation of ions (Broydens 2nd method)
  g(Force)  = 0.217E-04   g(Stress)= 0.000E+00

 retain information from N=  2 steps
 eigenvalues of (default step * inverse Hessian matrix)
  average eigenvalue of G=  22.2016
 eigenvalue spectrum of G is  0.4636 43.9395


--------------------------------------------------------------------------------------------------------


  
 reached required accuracy - stopping structural energy minimisation
 writing wavefunctions
     LOOP+:  cpu time      1.0790: real time      1.0849
    4ORBIT:  cpu time      0.0000: real time      0.0000

 total amount of memory used by VASP MPI-rank0   118042. kBytes
=======================================================================

   base      :      30000. kBytes
   nonl-proj :       1481. kBytes
   fftplans  :      30736. kBytes
   grid      :      54743. kBytes
   one-center:          4. kBytes
   wavefun   :       1078. kBytes
 
  
  
 General timing and accounting informations for this job:
 ========================================================
  
                  Total CPU time used (sec):       12.094
                            User time (sec):       10.675
                          System time (sec):        1.419
                         Elapsed time (sec):       12.679
  
                   Maximum memory used (kb):      259912.
                   Average memory used (kb):          N/A
  
                          Minor page faults:       285873
                          Major page faults:            0
                 Voluntary context switches:         1413
