 ----------------------------------------------------
    OOO  PPPP  EEEEE N   N M   M PPPP
   O   O P   P E     NN  N MM MM P   P
   O   O PPPP  EEEEE N N N M M M PPPP   -- VERSION
   O   O P     E     N  NN M   M P
    OOO  P     EEEEE N   N M   M P
 ----------------------------------------------------
 running    1 mpi-ranks, with    1 threads/rank
 distrk:  each k-point on    1 cores,    1 groups
 distr:  one band on    1 cores,    1 groups
 vasp.6.3.2 27Jun22 (build Oct 19 2022 15:35:57) gamma-only                     
  
 POSCAR found :  2 types and       3 ions
 scaLAPACK will be used
 LDA part: xc-table for Pade appr. of Perdew
 POSCAR, INCAR and KPOINTS ok, starting setup
 FFT: planning ... GRIDC
 FFT: planning ... GRID_SOFT
 FFT: planning ... GRID
 WAVECAR not read
 entering main loop
       N       E                     dE             d eps       ncg     rms          rms(c)
DAV:   1     0.741538950213E+02    0.74154E+02   -0.17262E+03    16   0.570E+02
DAV:   2     0.638260255947E+01   -0.67771E+02   -0.67771E+02    32   0.993E+01
DAV:   3    -0.149527441668E+02   -0.21335E+02   -0.21335E+02    16   0.811E+01
DAV:   4    -0.163507131561E+02   -0.13980E+01   -0.13980E+01    16   0.223E+01
DAV:   5    -0.163605303998E+02   -0.98172E-02   -0.98172E-02    24   0.194E+00    0.799E+00
DAV:   6    -0.143903772730E+02    0.19702E+01   -0.98226E+00    16   0.227E+01    0.306E+00
DAV:   7    -0.142803622486E+02    0.11002E+00   -0.13970E-01    24   0.295E+00    0.190E+00
DAV:   8    -0.141943790104E+02    0.85983E-01   -0.72380E-02    24   0.271E+00    0.212E-01
DAV:   9    -0.141980695631E+02   -0.36906E-02   -0.38402E-03    24   0.391E-01    0.137E-01
DAV:  10    -0.142068224415E+02   -0.87529E-02   -0.40597E-03    16   0.544E-01    0.650E-02
DAV:  11    -0.142141732283E+02   -0.73508E-02   -0.49805E-03    16   0.394E-01    0.967E-02
DAV:  12    -0.142149838305E+02   -0.81060E-03   -0.12419E-03    32   0.237E-01    0.204E-02
DAV:  13    -0.142161750456E+02   -0.11912E-02   -0.20652E-04    24   0.100E-01    0.137E-02
DAV:  14    -0.142162497677E+02   -0.74722E-04   -0.13770E-05    32   0.315E-02
   1 F= -.14216250E+02 E0= -.14216250E+02  d E =-.142162E+02
 BRION: g(F)=  0.756E-01 g(S)=  0.000E+00
 bond charge predicted
       N       E                     dE             d eps       ncg     rms          rms(c)
DAV:   1    -0.142128228681E+02    0.33522E-02   -0.16064E+00    16   0.113E+01    0.832E-01
DAV:   2    -0.142004701642E+02    0.12353E-01   -0.79485E-02    32   0.209E+00    0.305E-01
DAV:   3    -0.141999451788E+02    0.52499E-03   -0.11709E-03    24   0.345E-01    0.156E-01
DAV:   4    -0.141998751962E+02    0.69983E-04   -0.59469E-04    24   0.262E-01
   2 F= -.14199875E+02 E0= -.14199875E+02  d E =0.163746E-01
 BRION: g(F)=  0.132E+00 g(S)=  0.000E+00 retain N=  1 mean eig= 0.43
 eig:   0.431
 bond charge predicted
       N       E                     dE             d eps       ncg     rms          rms(c)
DAV:   1    -0.142347202775E+02   -0.34775E-01   -0.52148E-01    16   0.644E+00    0.440E-01
DAV:   2    -0.142311801343E+02    0.35401E-02   -0.20853E-02    24   0.111E+00    0.175E-01
DAV:   3    -0.142310015102E+02    0.17862E-03   -0.85451E-04    16   0.260E-01    0.844E-02
DAV:   4    -0.142310068732E+02   -0.53630E-05   -0.23788E-04    16   0.156E-01
   3 F= -.14231007E+02 E0= -.14231007E+02  d E =-.311317E-01
 BRION: g(F)=  0.659E-03 g(S)=  0.000E+00 retain N=  1 mean eig= 0.46
 eig:   0.462
 bond charge predicted
       N       E                     dE             d eps       ncg     rms          rms(c)
DAV:   1    -0.142311762816E+02   -0.17477E-03   -0.33727E-03    32   0.567E-01    0.307E-02
DAV:   2    -0.142311678485E+02    0.84331E-05   -0.10446E-04    24   0.829E-02
   4 F= -.14231168E+02 E0= -.14231168E+02  d E =-.160975E-03
 BRION: g(F)=  0.217E-04 g(S)=  0.000E+00 retain N=  2 mean eig=22.20
 eig:   0.464 43.940
 reached required accuracy - stopping structural energy minimisation
 writing wavefunctions
