unknown system                          
           1
     7.937700    0.000000    0.000000
     0.000000    7.937700    0.000000
     0.000000    0.000000    7.937700
   O    H 
     1     2
Direct configuration=     1
   0.00000000  0.00000000  0.00000000
   0.07333333  0.90466667  0.00000000
   0.07333333  0.09533333  0.00000000
Direct configuration=     2
   0.00000000  0.00000000  0.00000000
   0.07650926  0.90032266  0.00000000
   0.07650926  0.09967734  0.00000000
Direct configuration=     3
   0.00000000  0.00000000  0.00000000
   0.07490986  0.90293231  0.00000000
   0.07490986  0.09706769  0.00000000
Direct configuration=     4
   0.00000000  0.00000000  0.00000000
   0.07492713  0.90320556  0.00000000
   0.07492713  0.09679444  0.00000000
