fcc Si                                  
   4.00000000000000     
     0.483941    0.483941    0.000000
     0.000000    0.483941    0.483941
     0.483941    0.000000    0.483941
   Si
     1
Direct
  0.000000  0.000000  0.000000
 
   24   24   24
 -2.7197     -2.0894     -.39643      1.8420      3.9884      5.5191      6.1936      6.0934      5.5319      4.8850    
  4.3597      4.0234      3.9082      4.0234      4.3597      4.8850      5.5319      6.0934      6.1936      5.5191    
  3.9884      1.8420     -.39643     -2.0894     -2.0894     -.92907      1.0268      3.1910      4.9772      6.0065    
  6.2123      5.8093      5.1598      4.5657      4.1329      3.9071      3.9071      4.1329      4.5657      5.1598    
  5.8093      6.2123      6.0065      4.9772      3.1910      1.0268     -.92910     -2.0894     -.39643      1.0268    
  2.8861      4.6264      5.8006      6.2188      5.9774      5.3724      4.7361      4.2275      3.9042      3.7939    
  3.9042      4.2275      4.7361      5.3724      5.9774      6.2188      5.8006      4.6264      2.8861      1.0268    
 -.39646     -.92910      1.8420      3.1910      4.6264      5.7136      6.1933      6.0571      5.5121      4.8615    
  4.3012      3.9001      3.6928      3.6928      3.9000      4.3012      4.8615      5.5121      6.0571      6.1934    
  5.7136      4.6264      3.1910      1.8420      1.0268      1.0268      3.9884      4.9772      5.8006      6.1933    
  6.0791      5.5793      4.9376      4.3510      3.8958      3.6113      3.5150      3.6113      3.8957      4.3510    
  4.9375      5.5793      6.0791      6.1934      5.8007      4.9772      3.9885      3.1910      2.8861      3.1910    
  5.5191      6.0065      6.2188      6.0571      5.5793      4.9629      4.3760      3.8925      3.5545      3.3822    
  3.3822      3.5545      3.8925      4.3760      4.9629      5.5793      6.0571      6.2189      6.0065      5.5192    
  4.9772      4.6264      4.6264      4.9772      6.1936      6.2123      5.9774      5.5121      4.9376      4.3760    
  3.8912      3.5254      3.3007      3.2253      3.3008      3.5255      3.8913      4.3760      4.9376      5.5121    
  5.9774      6.2123      6.1936      6.0065      5.8007      5.7136      5.8006      6.0065      6.0934      5.8093    
  5.3724      4.8615      4.3510      3.8925      3.5254      3.2733      3.1460      3.1460      3.2734      3.5255    
  3.8925      4.3510      4.8615      5.3724      5.8093      6.0934      6.2123      6.2189      6.1934      6.1934    
  6.2188      6.2123      5.5319      5.1598      4.7361      4.3012      3.8958      3.5545      3.3007      3.1460    
  3.0942      3.1460      3.3007      3.5545      3.8958      4.3012      4.7362      5.1598      5.5319      5.8093    
  5.9774      6.0571      6.0791      6.0571      5.9774      5.8093      4.8850      4.5657      4.2275      3.9001    
  3.6113      3.3822      3.2253      3.1460      3.1460      3.2253      3.3822      3.6113      3.9001      4.2275    
  4.5658      4.8850      5.1598      5.3724      5.5121      5.5793      5.5793      5.5121      5.3724      5.1598    
  4.3597      4.1329      3.9042      3.6928      3.5150      3.3822      3.3008      3.2734      3.3007      3.3822    
  3.5150      3.6928      3.9042      4.1329      4.3597      4.5658      4.7362      4.8615      4.9376      4.9629    
  4.9375      4.8615      4.7361      4.5657      4.0234      3.9071      3.7939      3.6928      3.6113      3.5545    
  3.5255      3.5255      3.5545      3.6113      3.6928      3.7938      3.9071      4.0234      4.1329      4.2275    
  4.3012      4.3510      4.3760      4.3760      4.3510      4.3012      4.2275      4.1329      3.9082      3.9071    
  3.9042      3.9000      3.8957      3.8925      3.8913      3.8925      3.8958      3.9001      3.9042      3.9071    
  3.9082      3.9071      3.9042      3.9001      3.8958      3.8925      3.8913      3.8925      3.8957      3.9000    
  3.9042      3.9071      4.0234      4.1329      4.2275      4.3012      4.3510      4.3760      4.3760      4.3510    
  4.3012      4.2275      4.1329      4.0234      3.9071      3.7938      3.6928      3.6113      3.5545      3.5255    
  3.5255      3.5545      3.6113      3.6928      3.7939      3.9071      4.3597      4.5657      4.7361      4.8615    
  4.9375      4.9629      4.9376      4.8615      4.7362      4.5658      4.3597      4.1329      3.9042      3.6928    
  3.5150      3.3822      3.3007      3.2734      3.3008      3.3822      3.5150      3.6928      3.9042      4.1329    
  4.8850      5.1598      5.3724      5.5121      5.5793      5.5793      5.5121      5.3724      5.1598      4.8850    
  4.5658      4.2275      3.9001      3.6113      3.3822      3.2253      3.1460      3.1460      3.2253      3.3822    
  3.6113      3.9001      4.2275      4.5657      5.5319      5.8093      5.9774      6.0571      6.0791      6.0571    
  5.9774      5.8093      5.5319      5.1598      4.7362      4.3012      3.8958      3.5545      3.3007      3.1460    
  3.0942      3.1460      3.3007      3.5545      3.8958      4.3012      4.7361      5.1598      6.0934      6.2123    
  6.2188      6.1934      6.1934      6.2189      6.2123      6.0934      5.8093      5.3724      4.8615      4.3510    
  3.8925      3.5255      3.2734      3.1460      3.1460      3.2733      3.5254      3.8925      4.3510      4.8615    
  5.3724      5.8093      6.1936      6.0065      5.8006      5.7136      5.8007      6.0065      6.1936      6.2123    
  5.9774      5.5121      4.9376      4.3760      3.8913      3.5255      3.3008      3.2253      3.3007      3.5254    
  3.8912      4.3760      4.9376      5.5121      5.9774      6.2123      5.5191      4.9772      4.6264      4.6264    
  4.9772      5.5192      6.0065      6.2189      6.0571      5.5793      4.9629      4.3760      3.8925      3.5545    
  3.3822      3.3822      3.5545      3.8925      4.3760      4.9629      5.5793      6.0571      6.2188      6.0065    
  3.9884      3.1910      2.8861      3.1910      3.9885      4.9772      5.8007      6.1934      6.0791      5.5793    
  4.9375      4.3510      3.8957      3.6113      3.5150      3.6113      3.8958      4.3510      4.9376      5.5793    
  6.0791      6.1933      5.8006      4.9772      1.8420      1.0268      1.0268      1.8420      3.1910      4.6264    
  5.7136      6.1934      6.0571      5.5121      4.8615      4.3012      3.9000      3.6928      3.6928      3.9001    
  4.3012      4.8615      5.5121      6.0571      6.1933      5.7136      4.6264      3.1910     -.39643     -.92910    
 -.39646      1.0268      2.8861      4.6264      5.8006      6.2188      5.9774      5.3724      4.7361      4.2275    
  3.9042      3.7939      3.9042      4.2275      4.7361      5.3724      5.9774      6.2188      5.8006      4.6264    
  2.8861      1.0268     -2.0894     -2.0894     -.92910      1.0268      3.1910      4.9772      6.0065      6.2123    
  5.8093      5.1598      4.5657      4.1329      3.9071      3.9071      4.1329      4.5657      5.1598      5.8093    
  6.2123      6.0065      4.9772      3.1910      1.0268     -.92907     -2.0894     -.92907      1.0268      3.1910    
  4.9772      6.0065      6.2123      5.8093      5.1598      4.5657      4.1329      3.9071      3.9071      4.1329    
  4.5657      5.1598      5.8093      6.2123      6.0065      4.9772      3.1910      1.0268     -.92910     -2.0894    
 -.92907     0.58319      2.5668      4.4390      5.7276      6.2267      6.0286      5.4356      4.7949      4.2803    
  3.9525      3.8405      3.9525      4.2803      4.7949      5.4356      6.0287      6.2267      5.7276      4.4389    
  2.5668     0.58313     -.92911     -1.4941      1.0268      2.5668      4.2292      5.5309      6.1758      6.1387    
  5.6309      4.9760      4.4035      3.9914      3.7778      3.7778      3.9913      4.4034      4.9760      5.6309    
  6.1387      6.1758      5.5309      4.2291      2.5668      1.0268     0.10222     0.10223      3.1910      4.4390    
  5.5309      6.1469      6.1783      5.7419      5.1000      4.4951      4.0215      3.7242      3.6233      3.7241    
  4.0215      4.4950      5.1000      5.7419      6.1783      6.1469      5.5309      4.4390      3.1910      2.2053    
  1.8315      2.2053      4.9772      5.7276      6.1758      6.1783      5.7772      5.1626      4.5511      4.0418    
  3.6834      3.5000      3.4999      3.6834      4.0418      4.5511      5.1626      5.7772      6.1783      6.1758    
  5.7276      4.9772      4.2073      3.7240      3.7240      4.2073      6.0065      6.2267      6.1387      5.7419    
  5.1626      4.5700      4.0519      3.6580      3.4149      3.3331      3.4149      3.6580      4.0519      4.5700    
  5.1626      5.7418      6.1387      6.2267      6.0065      5.6116      5.2494      5.1042      5.2493      5.6115    
  6.2123      6.0286      5.6309      5.1000      4.5511      4.0519      3.6494      3.3716      3.2311      3.2311    
  3.3717      3.6494      4.0520      4.5511      5.1000      5.6308      6.0286      6.2123      6.1951      6.0725    
  5.9687      5.9687      6.0725      6.1951      5.8093      5.4356      4.9760      4.4951      4.0418      3.6580    
  3.3716      3.1969      3.1384      3.1969      3.3717      3.6580      4.0418      4.4951      4.9760      5.4356    
  5.8092      6.0444      6.1480      6.1711      6.1708      6.1711      6.1480      6.0444      5.1598      4.7949    
  4.4035      4.0215      3.6834      3.4149      3.2311      3.1384      3.1384      3.2311      3.4149      3.6834    
  4.0215      4.4035      4.7949      5.1598      5.4667      5.6877      5.8180      5.8748      5.8748      5.8181    
  5.6877      5.4667      4.5657      4.2803      3.9914      3.7242      3.5000      3.3331      3.2311      3.1969    
  3.2311      3.3330      3.4999      3.7241      3.9914      4.2803      4.5658      4.8232      5.0341      5.1874    
  5.2791      5.3092      5.2791      5.1874      5.0341      4.8232      4.1329      3.9525      3.7778      3.6233    
  3.4999      3.4149      3.3717      3.3717      3.4149      3.4999      3.6232      3.7778      3.9525      4.1329    
  4.3037      4.4513      4.5663      4.6439      4.6828      4.6827      4.6439      4.5662      4.4512      4.3037    
  3.9071      3.8405      3.7778      3.7241      3.6834      3.6580      3.6494      3.6580      3.6834      3.7241    
  3.7778      3.8405      3.9071      3.9718      4.0292      4.0754      4.1082      4.1276      4.1339      4.1275    
  4.1082      4.0753      4.0292      3.9718      3.9071      3.9525      3.9913      4.0215      4.0418      4.0519    
  4.0520      4.0418      4.0215      3.9914      3.9525      3.9071      3.8583      3.8098      3.7653      3.7283    
  3.7017      3.6879      3.6879      3.7017      3.7283      3.7653      3.8098      3.8583      4.1329      4.2803    
  4.4034      4.4950      4.5511      4.5700      4.5511      4.4951      4.4035      4.2803      4.1329      3.9718    
  3.8098      3.6597      3.5329      3.4375      3.3786      3.3587      3.3786      3.4376      3.5330      3.6598    
  3.8098      3.9718      4.5657      4.7949      4.9760      5.1000      5.1626      5.1626      5.1000      4.9760    
  4.7949      4.5658      4.3037      4.0292      3.7653      3.5329      3.3484      3.2216      3.1574      3.1574    
  3.2217      3.3485      3.5330      3.7653      4.0292      4.3037      5.1598      5.4356      5.6309      5.7419    
  5.7772      5.7418      5.6308      5.4356      5.1598      4.8232      4.4513      4.0754      3.7283      3.4375    
  3.2216      3.0899      3.0458      3.0899      3.2216      3.4376      3.7283      4.0753      4.4512      4.8232    
  5.8093      6.0287      6.1387      6.1783      6.1783      6.1387      6.0286      5.8092      5.4667      5.0341    
  4.5663      4.1082      3.7017      3.3786      3.1574      3.0458      3.0458      3.1574      3.3786      3.7017    
  4.1082      4.5663      5.0341      5.4667      6.2123      6.2267      6.1758      6.1469      6.1758      6.2267    
  6.2123      6.0444      5.6877      5.1874      4.6439      4.1276      3.6879      3.3587      3.1574      3.0899    
  3.1574      3.3587      3.6878      4.1275      4.6439      5.1875      5.6877      6.0444      6.0065      5.7276    
  5.5309      5.5309      5.7276      6.0065      6.1951      6.1480      5.8180      5.2791      4.6828      4.1339    
  3.6879      3.3786      3.2217      3.2216      3.3786      3.6878      4.1339      4.6828      5.2791      5.8180    
  6.1479      6.1951      4.9772      4.4389      4.2291      4.4390      4.9772      5.6116      6.0725      6.1711    
  5.8748      5.3092      4.6827      4.1275      3.7017      3.4376      3.3485      3.4376      3.7017      4.1275    
  4.6828      5.3092      5.8748      6.1711      6.0725      5.6115      3.1910      2.5668      2.5668      3.1910    
  4.2073      5.2494      5.9687      6.1708      5.8748      5.2791      4.6439      4.1082      3.7283      3.5330    
  3.5330      3.7283      4.1082      4.6439      5.2791      5.8748      6.1707      5.9687      5.2493      4.2073    
  1.0268     0.58313      1.0268      2.2053      3.7240      5.1042      5.9687      6.1711      5.8181      5.1874    
  4.5662      4.0753      3.7653      3.6598      3.7653      4.0753      4.5663      5.1875      5.8180      6.1711    
  5.9687      5.1042      3.7240      2.2053     -.92910     -.92911     0.10222      1.8315      3.7240      5.2493    
  6.0725      6.1480      5.6877      5.0341      4.4512      4.0292      3.8098      3.8098      4.0292      4.4512    
  5.0341      5.6877      6.1479      6.0725      5.2493      3.7240      1.8316     0.10223     -2.0894     -1.4941    
 0.10223      2.2053      4.2073      5.6115      6.1951      6.0444      5.4667      4.8232      4.3037      3.9718    
  3.8583      3.9718      4.3037      4.8232      5.4667      6.0444      6.1951      5.6115      4.2073      2.2053    
 0.10223     -1.4941     -.39643      1.0268      2.8861      4.6264      5.8006      6.2188      5.9774      5.3724    
  4.7361      4.2275      3.9042      3.7939      3.9042      4.2275      4.7361      5.3724      5.9774      6.2188    
  5.8006      4.6264      2.8861      1.0268     -.39646     -.92910      1.0268      2.5668      4.2292      5.5309    
  6.1758      6.1387      5.6309      4.9760      4.4035      3.9914      3.7778      3.7778      3.9913      4.4034    
  4.9760      5.6309      6.1387      6.1758      5.5309      4.2291      2.5668      1.0268     0.10222     0.10223    
  2.8861      4.2292      5.4201      6.1194      6.2063      5.7956      5.1558      4.5448      4.0651      3.7633    
  3.6608      3.7633      4.0650      4.5448      5.1558      5.7956      6.2063      6.1194      5.4202      4.2292    
  2.8861      1.8315      1.4326      1.8316      4.6264      5.5309      6.1194      6.2226      5.8730      5.2665    
  4.6431      4.1206      3.7515      3.5622      3.5622      3.7515      4.1206      4.6431      5.2664      5.8730    
  6.2226      6.1194      5.5309      4.6264      3.7240      3.1640      3.1640      3.7240      5.8006      6.1758    
  6.2063      5.8730      5.3037      4.6934      4.1550      3.7433      3.4884      3.4025      3.4884      3.7433    
  4.1549      4.6933      5.3036      5.8730      6.2063      6.1758      5.8006      5.2493      4.7708      4.5826    
  4.7707      5.2493      6.2188      6.1387      5.7956      5.2665      4.6934      4.1666      3.7390      3.4429    
  3.2927      3.2927      3.4429      3.7390      4.1666      4.6933      5.2664      5.7955      6.1387      6.2188    
  6.0725      5.8317      5.6573      5.6573      5.8317      6.0725      5.9774      5.6309      5.1558      4.6431    
  4.1550      3.7390      3.4276      3.2371      3.1734      3.2372      3.4276      3.7390      4.1550      4.6431    
  5.1558      5.6308      5.9773      6.1479      6.1718      6.1300      6.1047      6.1300      6.1718      6.1479    
  5.3724      4.9760      4.5448      4.1206      3.7433      3.4429      3.2371      3.1333      3.1334      3.2372    
  3.4429      3.7433      4.1206      4.5448      4.9760      5.3724      5.6877      5.8900      5.9909      6.0266    
  6.0266      5.9909      5.8900      5.6877      4.7361      4.4035      4.0651      3.7515      3.4884      3.2927    
  3.1734      3.1334      3.1733      3.2927      3.4883      3.7515      4.0651      4.4035      4.7362      5.0341    
  5.2754      5.4454      5.5413      5.5717      5.5414      5.4454      5.2754      5.0341      4.2275      3.9914    
  3.7633      3.5622      3.4025      3.2927      3.2372      3.2372      3.2927      3.4024      3.5622      3.7633    
  3.9914      4.2275      4.4513      4.6446      4.7952      4.8967      4.9473      4.9473      4.8967      4.7952    
  4.6446      4.4512      3.9042      3.7778      3.6608      3.5622      3.4884      3.4429      3.4276      3.4429    
  3.4883      3.5622      3.6608      3.7778      3.9042      4.0292      4.1424      4.2354      4.3032      4.3439    
  4.3574      4.3439      4.3031      4.2353      4.1424      4.0292      3.7939      3.7778      3.7633      3.7515    
  3.7433      3.7390      3.7390      3.7433      3.7515      3.7633      3.7778      3.7938      3.8098      3.8238    
  3.8345      3.8414      3.8450      3.8464      3.8464      3.8450      3.8413      3.8345      3.8238      3.8098    
  3.9042      3.9913      4.0650      4.1206      4.1549      4.1666      4.1550      4.1206      4.0651      3.9914    
  3.9042      3.8098      3.7151      3.6273      3.5524      3.4953      3.4597      3.4475      3.4596      3.4953    
  3.5524      3.6273      3.7152      3.8098      4.2275      4.4034      4.5448      4.6431      4.6933      4.6933    
  4.6431      4.5448      4.4035      4.2275      4.0292      3.8238      3.6273      3.4545      3.3167      3.2215    
  3.1731      3.1731      3.2216      3.3168      3.4545      3.6273      3.8238      4.0292      4.7361      4.9760    
  5.1558      5.2664      5.3036      5.2664      5.1558      4.9760      4.7362      4.4513      4.1424      3.8345    
  3.5524      3.3167      3.1415      3.0344      2.9984      3.0344      3.1416      3.3168      3.5524      3.8345    
  4.1424      4.4512      5.3724      5.6309      5.7956      5.8730      5.8730      5.7955      5.6308      5.3724    
  5.0341      4.6446      4.2354      3.8414      3.4953      3.2215      3.0344      2.9400      2.9400      3.0344    
  3.2216      3.4953      3.8414      4.2353      4.6446      5.0341      5.9774      6.1387      6.2063      6.2226    
  6.2063      6.1387      5.9773      5.6877      5.2754      4.7952      4.3032      3.8450      3.4597      3.1731    
  2.9984      2.9400      2.9984      3.1731      3.4596      3.8450      4.3031      4.7952      5.2754      5.6877    
  6.2188      6.1758      6.1194      6.1194      6.1758      6.2188      6.1479      5.8900      5.4454      4.8967    
  4.3439      3.8464      3.4475      3.1731      3.0344      3.0344      3.1731      3.4475      3.8464      4.3439    
  4.8967      5.4454      5.8900      6.1480      5.8006      5.5309      5.4202      5.5309      5.8006      6.0725    
  6.1718      5.9909      5.5413      4.9473      4.3574      3.8464      3.4596      3.2216      3.1416      3.2216    
  3.4596      3.8464      4.3574      4.9474      5.5414      5.9909      6.1718      6.0725      4.6264      4.2291    
  4.2292      4.6264      5.2493      5.8317      6.1300      6.0266      5.5717      4.9473      4.3439      3.8450    
  3.4953      3.3168      3.3168      3.4953      3.8450      4.3439      4.9474      5.5717      6.0266      6.1300    
  5.8317      5.2493      2.8861      2.5668      2.8861      3.7240      4.7708      5.6573      6.1047      6.0266    
  5.5414      4.8967      4.3031      3.8413      3.5524      3.4545      3.5524      3.8414      4.3031      4.8967    
  5.5414      6.0266      6.1047      5.6573      4.7707      3.7240      1.0268      1.0268      1.8315      3.1640    
  4.5826      5.6573      6.1300      5.9909      5.4454      4.7952      4.2353      3.8345      3.6273      3.6273    
  3.8345      4.2353      4.7952      5.4454      5.9909      6.1300      5.6573      4.5826      3.1640      1.8315    
 -.39646     0.10222      1.4326      3.1640      4.7707      5.8317      6.1718      5.8900      5.2754      4.6446    
  4.1424      3.8238      3.7152      3.8238      4.1424      4.6446      5.2754      5.8900      6.1718      5.8317    
  4.7707      3.1640      1.4326     0.10222     -.92910     0.10223      1.8316      3.7240      5.2493      6.0725    
  6.1479      5.6877      5.0341      4.4512      4.0292      3.8098      3.8098      4.0292      4.4512      5.0341    
  5.6877      6.1480      6.0725      5.2493      3.7240      1.8315     0.10222     -.92911      1.8420      3.1910    
  4.6264      5.7136      6.1933      6.0571      5.5121      4.8615      4.3012      3.9001      3.6928      3.6928    
  3.9000      4.3012      4.8615      5.5121      6.0571      6.1934      5.7136      4.6264      3.1910      1.8420    
  1.0268      1.0268      3.1910      4.4390      5.5309      6.1469      6.1783      5.7419      5.1000      4.4951    
  4.0215      3.7242      3.6233      3.7241      4.0215      4.4950      5.1000      5.7419      6.1783      6.1469    
  5.5309      4.4390      3.1910      2.2053      1.8315      2.2053      4.6264      5.5309      6.1194      6.2226    
  5.8730      5.2665      4.6431      4.1206      3.7515      3.5622      3.5622      3.7515      4.1206      4.6431    
  5.2664      5.8730      6.2226      6.1194      5.5309      4.6264      3.7240      3.1640      3.1640      3.7240    
  5.7136      6.1469      6.2226      5.9149      5.3515      4.7357      4.1905      3.7727      3.5137      3.4264    
  3.5137      3.7727      4.1904      4.7356      5.3515      5.9149      6.2226      6.1469      5.7136      5.1042    
  4.5826      4.3785      4.5826      5.1042      6.1933      6.1783      5.8730      5.3515      4.7672      4.2265    
  3.7860      3.4803      3.3250      3.3250      3.4803      3.7860      4.2265      4.7671      5.3514      5.8730    
  6.1782      6.1933      5.9687      5.6573      5.4410      5.4410      5.6573      5.9687      6.0571      5.7419    
  5.2665      4.7357      4.2265      3.7905      3.4632      3.2628      3.1956      3.2628      3.4633      3.7906    
  4.2265      4.7357      5.2664      5.7418      6.0571      6.1710      6.1299      6.0368      5.9921      6.0368    
  6.1300      6.1711      5.5121      5.1000      4.6431      4.1905      3.7860      3.4632      3.2418      3.1301    
  3.1301      3.2419      3.4633      3.7860      4.1905      4.6431      5.1000      5.5121      5.8180      5.9908    
  6.0573      6.0704      6.0704      6.0574      5.9909      5.8180      4.8615      4.4951      4.1206      3.7727    
  3.4803      3.2628      3.1301      3.0856      3.1301      3.2628      3.4803      3.7727      4.1207      4.4951    
  4.8615      5.1874      5.4453      5.6163      5.7066      5.7338      5.7067      5.6164      5.4454      5.1875    
  4.3012      4.0215      3.7515      3.5137      3.3250      3.1956      3.1301      3.1301      3.1955      3.3250    
  3.5137      3.7515      4.0215      4.3012      4.5663      4.7952      4.9732      5.0928      5.1522      5.1522    
  5.0929      4.9732      4.7952      4.5663      3.9001      3.7242      3.5622      3.4264      3.3250      3.2628    
  3.2419      3.2628      3.3250      3.4263      3.5622      3.7241      3.9001      4.0754      4.2354      4.3681    
  4.4659      4.5252      4.5450      4.5252      4.4659      4.3681      4.2353      4.0753      3.6928      3.6233    
  3.5622      3.5137      3.4803      3.4633      3.4633      3.4803      3.5137      3.5622      3.6232      3.6927    
  3.7653      3.8345      3.8946      3.9415      3.9730      3.9886      3.9886      3.9729      3.9414      3.8946    
  3.8345      3.7653      3.6928      3.7241      3.7515      3.7727      3.7860      3.7906      3.7860      3.7727    
  3.7515      3.7241      3.6927      3.6597      3.6273      3.5972      3.5712      3.5507      3.5376      3.5330    
  3.5376      3.5507      3.5711      3.5972      3.6273      3.6598      3.9000      4.0215      4.1206      4.1904    
  4.2265      4.2265      4.1905      4.1207      4.0215      3.9001      3.7653      3.6273      3.4963      3.3812    
  3.2892      3.2252      3.1925      3.1925      3.2252      3.2892      3.3813      3.4963      3.6273      3.7653    
  4.3012      4.4950      4.6431      4.7356      4.7671      4.7357      4.6431      4.4951      4.3012      4.0754    
  3.8345      3.5972      3.3812      3.2010      3.0667      2.9842      2.9565      2.9843      3.0667      3.2011    
  3.3813      3.5972      3.8345      4.0753      4.8615      5.1000      5.2664      5.3515      5.3514      5.2664    
  5.1000      4.8615      4.5663      4.2354      3.8946      3.5712      3.2892      3.0667      2.9145      2.8375    
  2.8376      2.9145      3.0667      3.2892      3.5712      3.8946      4.2353      4.5662      5.5121      5.7419    
  5.8730      5.9149      5.8730      5.7418      5.5121      5.1874      4.7952      4.3681      3.9415      3.5507    
  3.2252      2.9842      2.8375      2.7885      2.8376      2.9842      3.2252      3.5507      3.9414      4.3681    
  4.7952      5.1874      6.0571      6.1783      6.2226      6.2226      6.1782      6.0571      5.8180      5.4453    
  4.9732      4.4659      3.9730      3.5376      3.1925      2.9565      2.8376      2.8376      2.9565      3.1924    
  3.5375      3.9729      4.4659      4.9732      5.4454      5.8181      6.1934      6.1469      6.1194      6.1469    
  6.1933      6.1710      5.9908      5.6163      5.0928      4.5252      3.9886      3.5330      3.1925      2.9843    
  2.9145      2.9842      3.1924      3.5330      3.9886      4.5252      5.0929      5.6164      5.9909      6.1711    
  5.7136      5.5309      5.5309      5.7136      5.9687      6.1299      6.0573      5.7066      5.1522      4.5450    
  3.9886      3.5376      3.2252      3.0667      3.0667      3.2252      3.5375      3.9886      4.5450      5.1522    
  5.7067      6.0574      6.1300      5.9687      4.6264      4.4390      4.6264      5.1042      5.6573      6.0368    
  6.0704      5.7338      5.1522      4.5252      3.9729      3.5507      3.2892      3.2011      3.2892      3.5507    
  3.9729      4.5252      5.1522      5.7338      6.0704      6.0368      5.6573      5.1042      3.1910      3.1910    
  3.7240      4.5826      5.4410      5.9921      6.0704      5.7067      5.0929      4.4659      3.9414      3.5711    
  3.3813      3.3813      3.5712      3.9414      4.4659      5.0929      5.7067      6.0704      5.9921      5.4410    
  4.5826      3.7240      1.8420      2.2053      3.1640      4.3785      5.4410      6.0368      6.0574      5.6164    
  4.9732      4.3681      3.8946      3.5972      3.4963      3.5972      3.8946      4.3681      4.9732      5.6164    
  6.0574      6.0368      5.4410      4.3785      3.1640      2.2053      1.0268      1.8315      3.1640      4.5826    
  5.6573      6.1300      5.9909      5.4454      4.7952      4.2353      3.8345      3.6273      3.6273      3.8345    
  4.2353      4.7952      5.4454      5.9909      6.1300      5.6573      4.5826      3.1640      1.8315      1.0268    
  1.0268      2.2053      3.7240      5.1042      5.9687      6.1711      5.8180      5.1875      4.5663      4.0753    
  3.7653      3.6598      3.7653      4.0753      4.5662      5.1874      5.8181      6.1711      5.9687      5.1042    
  3.7240      2.2053      1.0268     0.58313      3.9884      4.9772      5.8006      6.1933      6.0791      5.5793    
  4.9376      4.3510      3.8958      3.6113      3.5150      3.6113      3.8957      4.3510      4.9375      5.5793    
  6.0791      6.1934      5.8007      4.9772      3.9885      3.1910      2.8861      3.1910      4.9772      5.7276    
  6.1758      6.1783      5.7772      5.1626      4.5511      4.0418      3.6834      3.5000      3.4999      3.6834    
  4.0418      4.5511      5.1626      5.7772      6.1783      6.1758      5.7276      4.9772      4.2073      3.7240    
  3.7240      4.2073      5.8006      6.1758      6.2063      5.8730      5.3037      4.6934      4.1550      3.7433    
  3.4884      3.4025      3.4884      3.7433      4.1549      4.6933      5.3036      5.8730      6.2063      6.1758    
  5.8006      5.2493      4.7708      4.5826      4.7707      5.2493      6.1933      6.1783      5.8730      5.3515    
  4.7672      4.2265      3.7860      3.4803      3.3250      3.3250      3.4803      3.7860      4.2265      4.7671    
  5.3514      5.8730      6.1782      6.1933      5.9687      5.6573      5.4410      5.4410      5.6573      5.9687    
  6.0791      5.7772      5.3037      4.7672      4.2509      3.8082      3.4755      3.2716      3.2032      3.2716    
  3.4755      3.8083      4.2509      4.7671      5.3036      5.7771      6.0790      6.1707      6.1047      5.9920    
  5.9399      5.9921      6.1047      6.1707      5.5793      5.1626      4.6934      4.2265      3.8082      3.4739    
  3.2443      3.1284      3.1284      3.2444      3.4739      3.8083      4.2265      4.6934      5.1626      5.5793    
  5.8747      6.0265      6.0703      6.0690      6.0690      6.0704      6.0266      5.8748      4.9376      4.5511    