fcc Si                                  
   4.00000000000000     
     0.483286    0.483286    0.000000
     0.000000    0.483286    0.483286
     0.483286    0.000000    0.483286
   Si
     1
Direct
  0.000000  0.000000  0.000000
 
   24   24   24
 -.24649599588E+01 -.19316604738E+01 -.48631963246E+00 0.14624878979E+01 0.33972868592E+01
 0.48707386644E+01 0.56458189365E+01 0.57425892204E+01 0.53840806278E+01 0.48786956443E+01
 0.44473699593E+01 0.41648792198E+01 0.40669940284E+01 0.41648792198E+01 0.44473699593E+01
 0.48786956443E+01 0.53840806278E+01 0.57425892204E+01 0.56458189365E+01 0.48707386644E+01
 0.33972868592E+01 0.14624878979E+01 -.48631963246E+00 -.19316604738E+01 -.19316604738E+01
 -.94329559293E+00 0.74667961028E+00 0.26676396545E+01 0.43318922603E+01 0.53985813518E+01
 0.57680568525E+01 0.55748654610E+01 0.50969612821E+01 0.46153849269E+01 0.42546377327E+01
 0.40631779073E+01 0.40631773921E+01 0.42546366958E+01 0.46153841580E+01 0.50969607192E+01
 0.55748641928E+01 0.57680539566E+01 0.53985762460E+01 0.43318844993E+01 0.26676292671E+01
 0.74666810637E+00 -.94330494325E+00 -.19316641092E+01 -.48631963246E+00 0.74667961028E+00
 0.23924580307E+01 0.39949516165E+01 0.51668309633E+01 0.57135949771E+01 0.56718319324E+01
 0.52563184762E+01 0.47485079354E+01 0.43266692415E+01 0.40527323281E+01 0.39581905996E+01
 0.40527320141E+01 0.43266692632E+01 0.47485086309E+01 0.52563191383E+01 0.56718308993E+01
 0.57135901512E+01 0.51668206301E+01 0.39949357365E+01 0.23924392607E+01 0.74666277899E+00
 -.48632955759E+00 -.94330494325E+00 0.14624878979E+01 0.26676396545E+01 0.39949516165E+01
 0.50734381267E+01 0.56591814178E+01 0.57061291149E+01 0.53530076573E+01 0.48425555900E+01
 0.43787493284E+01 0.40384208801E+01 0.38598142652E+01 0.38598144045E+01 0.40384216345E+01
 0.43787513194E+01 0.48425589101E+01 0.53530111545E+01 0.57061300993E+01 0.56591764385E+01
 0.50734252144E+01 0.39949325440E+01 0.26676197500E+01 0.14624732371E+01 0.74666277899E+00
 0.74666810637E+00 0.33972868592E+01 0.43318922603E+01 0.51668309633E+01 0.56591814178E+01
 0.57126177678E+01 0.53964896439E+01 0.48977240618E+01 0.44115847054E+01 0.40240649082E+01
 0.37773688121E+01 0.36930363264E+01 0.37773678582E+01 0.40240647298E+01 0.44115870603E+01
 0.48977291289E+01 0.53964955900E+01 0.57126212220E+01 0.56591788006E+01 0.51668207312E+01
 0.43318766796E+01 0.33972713817E+01 0.26676197500E+01 0.23924392607E+01 0.26676292671E+01
 0.48707386644E+01 0.53985813518E+01 0.57135949771E+01 0.57061291149E+01 0.53964896439E+01
 0.49158061591E+01 0.44272099018E+01 0.40135287926E+01 0.37182855777E+01 0.35657453908E+01
 0.35657434546E+01 0.37182813839E+01 0.40135256821E+01 0.44272102289E+01 0.49158100715E+01
 0.53964954724E+01 0.57061340414E+01 0.57135959724E+01 0.53985769458E+01 0.48707304663E+01
 0.43318766796E+01 0.39949325440E+01 0.39949357365E+01 0.43318844993E+01 0.56458189365E+01
 0.57680568525E+01 0.56718319324E+01 0.53530076573E+01 0.48977240618E+01 0.44272099018E+01
 0.40096666590E+01 0.36875261938E+01 0.34864952752E+01 0.34184345813E+01 0.34864911255E+01
 0.36875197701E+01 0.40096604546E+01 0.44272059005E+01 0.48977233168E+01 0.53530100035E+01
 0.56718358839E+01 0.57680604206E+01 0.56458209829E+01 0.53985769458E+01 0.51668207312E+01
 0.50734252144E+01 0.51668206301E+01 0.53985762460E+01 0.57425892204E+01 0.55748654610E+01
 0.52563184762E+01 0.48425555900E+01 0.44115847054E+01 0.40135287926E+01 0.36875261938E+01
 0.34596506139E+01 0.33432863058E+01 0.33432853730E+01 0.34596475511E+01 0.36875205749E+01
 0.40135209036E+01 0.44115761377E+01 0.48425487280E+01 0.52563152047E+01 0.55748663687E+01
 0.57425937101E+01 0.57680604206E+01 0.57135959724E+01 0.56591788006E+01 0.56591764385E+01
 0.57135901512E+01 0.57680539566E+01 0.53840806278E+01 0.50969612821E+01 0.47485079354E+01
 0.43787493284E+01 0.40240649082E+01 0.37182855777E+01 0.34864952752E+01 0.33432863058E+01
 0.32950203561E+01 0.33432881838E+01 0.34864969785E+01 0.37182841988E+01 0.40240586395E+01
 0.43787389453E+01 0.47484965950E+01 0.50969527867E+01 0.53840774641E+01 0.55748663687E+01
 0.56718358839E+01 0.57061340414E+01 0.57126212220E+01 0.57061300993E+01 0.56718308993E+01
 0.55748641928E+01 0.48786956443E+01 0.46153849269E+01 0.43266692415E+01 0.40384208801E+01
 0.37773688121E+01 0.35657453908E+01 0.34184345813E+01 0.33432853730E+01 0.33432881838E+01
 0.34184417597E+01 0.35657535097E+01 0.37773735467E+01 0.40384191709E+01 0.43266610641E+01
 0.46153732066E+01 0.48786843766E+01 0.50969527867E+01 0.52563152047E+01 0.53530100035E+01
 0.53964954724E+01 0.53964955900E+01 0.53530111545E+01 0.52563191383E+01 0.50969607192E+01
 0.44473699593E+01 0.42546377327E+01 0.40527323281E+01 0.38598142652E+01 0.36930363264E+01
 0.35657434546E+01 0.34864911255E+01 0.34596475511E+01 0.34864969785E+01 0.35657535097E+01
 0.36930476281E+01 0.38598234163E+01 0.40527366431E+01 0.42546360451E+01 0.44473627439E+01
 0.46153732066E+01 0.47484965950E+01 0.48425487280E+01 0.48977233168E+01 0.49158100715E+01
 0.48977291289E+01 0.48425589101E+01 0.47485086309E+01 0.46153841580E+01 0.41648792198E+01
 0.40631779073E+01 0.39581905996E+01 0.38598144045E+01 0.37773678582E+01 0.37182813839E+01
 0.36875197701E+01 0.36875205749E+01 0.37182841988E+01 0.37773735467E+01 0.38598234163E+01
 0.39582019832E+01 0.40631888794E+01 0.41648859103E+01 0.42546360451E+01 0.43266610641E+01
 0.43787389453E+01 0.44115761377E+01 0.44272059005E+01 0.44272102289E+01 0.44115870603E+01
 0.43787513194E+01 0.43266692632E+01 0.42546366958E+01 0.40669940284E+01 0.40631773921E+01
 0.40527320141E+01 0.40384216345E+01 0.40240647298E+01 0.40135256821E+01 0.40096604546E+01
 0.40135209036E+01 0.40240586395E+01 0.40384191709E+01 0.40527366431E+01 0.40631888794E+01
 0.40670083351E+01 0.40631888794E+01 0.40527366431E+01 0.40384191709E+01 0.40240586395E+01
 0.40135209036E+01 0.40096604546E+01 0.40135256821E+01 0.40240647298E+01 0.40384216345E+01
 0.40527320141E+01 0.40631773921E+01 0.41648792198E+01 0.42546366958E+01 0.43266692632E+01
 0.43787513194E+01 0.44115870603E+01 0.44272102289E+01 0.44272059005E+01 0.44115761377E+01
 0.43787389453E+01 0.43266610641E+01 0.42546360451E+01 0.41648859103E+01 0.40631888794E+01
 0.39582019832E+01 0.38598234163E+01 0.37773735467E+01 0.37182841988E+01 0.36875205749E+01
 0.36875197701E+01 0.37182813839E+01 0.37773678582E+01 0.38598144045E+01 0.39581905996E+01
 0.40631779073E+01 0.44473699593E+01 0.46153841580E+01 0.47485086309E+01 0.48425589101E+01
 0.48977291289E+01 0.49158100715E+01 0.48977233168E+01 0.48425487280E+01 0.47484965950E+01
 0.46153732066E+01 0.44473627439E+01 0.42546360451E+01 0.40527366431E+01 0.38598234163E+01
 0.36930476281E+01 0.35657535097E+01 0.34864969785E+01 0.34596475511E+01 0.34864911255E+01
 0.35657434546E+01 0.36930363264E+01 0.38598142652E+01 0.40527323281E+01 0.42546377327E+01
 0.48786956443E+01 0.50969607192E+01 0.52563191383E+01 0.53530111545E+01 0.53964955900E+01
 0.53964954724E+01 0.53530100035E+01 0.52563152047E+01 0.50969527867E+01 0.48786843766E+01
 0.46153732066E+01 0.43266610641E+01 0.40384191709E+01 0.37773735467E+01 0.35657535097E+01
 0.34184417597E+01 0.33432881838E+01 0.33432853730E+01 0.34184345813E+01 0.35657453908E+01
 0.37773688121E+01 0.40384208801E+01 0.43266692415E+01 0.46153849269E+01 0.53840806278E+01
 0.55748641928E+01 0.56718308993E+01 0.57061300993E+01 0.57126212220E+01 0.57061340414E+01
 0.56718358839E+01 0.55748663687E+01 0.53840774641E+01 0.50969527867E+01 0.47484965950E+01
 0.43787389453E+01 0.40240586395E+01 0.37182841988E+01 0.34864969785E+01 0.33432881838E+01
 0.32950203561E+01 0.33432863058E+01 0.34864952752E+01 0.37182855777E+01 0.40240649082E+01
 0.43787493284E+01 0.47485079354E+01 0.50969612821E+01 0.57425892204E+01 0.57680539566E+01
 0.57135901512E+01 0.56591764385E+01 0.56591788006E+01 0.57135959724E+01 0.57680604206E+01
 0.57425937101E+01 0.55748663687E+01 0.52563152047E+01 0.48425487280E+01 0.44115761377E+01
 0.40135209036E+01 0.36875205749E+01 0.34596475511E+01 0.33432853730E+01 0.33432863058E+01
 0.34596506139E+01 0.36875261938E+01 0.40135287926E+01 0.44115847054E+01 0.48425555900E+01
 0.52563184762E+01 0.55748654610E+01 0.56458189365E+01 0.53985762460E+01 0.51668206301E+01
 0.50734252144E+01 0.51668207312E+01 0.53985769458E+01 0.56458209829E+01 0.57680604206E+01
 0.56718358839E+01 0.53530100035E+01 0.48977233168E+01 0.44272059005E+01 0.40096604546E+01
 0.36875197701E+01 0.34864911255E+01 0.34184345813E+01 0.34864952752E+01 0.36875261938E+01
 0.40096666590E+01 0.44272099018E+01 0.48977240618E+01 0.53530076573E+01 0.56718319324E+01
 0.57680568525E+01 0.48707386644E+01 0.43318844993E+01 0.39949357365E+01 0.39949325440E+01
 0.43318766796E+01 0.48707304663E+01 0.53985769458E+01 0.57135959724E+01 0.57061340414E+01
 0.53964954724E+01 0.49158100715E+01 0.44272102289E+01 0.40135256821E+01 0.37182813839E+01
 0.35657434546E+01 0.35657453908E+01 0.37182855777E+01 0.40135287926E+01 0.44272099018E+01
 0.49158061591E+01 0.53964896439E+01 0.57061291149E+01 0.57135949771E+01 0.53985813518E+01
 0.33972868592E+01 0.26676292671E+01 0.23924392607E+01 0.26676197500E+01 0.33972713817E+01
 0.43318766796E+01 0.51668207312E+01 0.56591788006E+01 0.57126212220E+01 0.53964955900E+01
 0.48977291289E+01 0.44115870603E+01 0.40240647298E+01 0.37773678582E+01 0.36930363264E+01
 0.37773688121E+01 0.40240649082E+01 0.44115847054E+01 0.48977240618E+01 0.53964896439E+01
 0.57126177678E+01 0.56591814178E+01 0.51668309633E+01 0.43318922603E+01 0.14624878979E+01
 0.74666810637E+00 0.74666277899E+00 0.14624732371E+01 0.26676197500E+01 0.39949325440E+01
 0.50734252144E+01 0.56591764385E+01 0.57061300993E+01 0.53530111545E+01 0.48425589101E+01
 0.43787513194E+01 0.40384216345E+01 0.38598144045E+01 0.38598142652E+01 0.40384208801E+01
 0.43787493284E+01 0.48425555900E+01 0.53530076573E+01 0.57061291149E+01 0.56591814178E+01
 0.50734381267E+01 0.39949516165E+01 0.26676396545E+01 -.48631963246E+00 -.94330494325E+00
 -.48632955759E+00 0.74666277899E+00 0.23924392607E+01 0.39949357365E+01 0.51668206301E+01
 0.57135901512E+01 0.56718308993E+01 0.52563191383E+01 0.47485086309E+01 0.43266692632E+01
 0.40527320141E+01 0.39581905996E+01 0.40527323281E+01 0.43266692415E+01 0.47485079354E+01
 0.52563184762E+01 0.56718319324E+01 0.57135949771E+01 0.51668309633E+01 0.39949516165E+01
 0.23924580307E+01 0.74667961028E+00 -.19316604738E+01 -.19316641092E+01 -.94330494325E+00
 0.74666810637E+00 0.26676292671E+01 0.43318844993E+01 0.53985762460E+01 0.57680539566E+01
 0.55748641928E+01 0.50969607192E+01 0.46153841580E+01 0.42546366958E+01 0.40631773921E+01
 0.40631779073E+01 0.42546377327E+01 0.46153849269E+01 0.50969612821E+01 0.55748654610E+01
 0.57680568525E+01 0.53985813518E+01 0.43318922603E+01 0.26676396545E+01 0.74667961028E+00
 -.94329559293E+00 -.19316605739E+01 -.94329575321E+00 0.74667950485E+00 0.26676396101E+01
 0.43318922111E+01 0.53985813222E+01 0.57680569130E+01 0.55748655679E+01 0.50969613319E+01
 0.46153849283E+01 0.42546377621E+01 0.40631779418E+01 0.40631773530E+01 0.42546366142E+01
 0.46153841280E+01 0.50969607309E+01 0.55748641765E+01 0.57680539454E+01 0.53985763248E+01
 0.43318846343E+01 0.26676293527E+01 0.74666813778E+00 -.94330490706E+00 -.19316641028E+01
 -.94329575321E+00 0.36048532894E+00 0.21064878916E+01 0.38177487287E+01 0.50871230123E+01
 0.57066091019E+01 0.57080224685E+01 0.53093452771E+01 0.48012902473E+01 0.43759316734E+01
 0.40989730694E+01 0.40032686689E+01 0.40989724812E+01 0.43759309696E+01 0.48012896145E+01
 0.53093442440E+01 0.57080200337E+01 0.57066036036E+01 0.50871122759E+01 0.38177316871E+01
 0.21064667359E+01 0.36046562023E+00 -.94330763937E+00 -.14258295476E+01 0.74667950485E+00
 0.21064878916E+01 0.36210430497E+01 0.48815682897E+01 0.56139375474E+01 0.57564546400E+01
 0.54479051087E+01 0.49432538886E+01 0.44724587689E+01 0.41248532687E+01 0.39418060565E+01
 0.39418061733E+01 0.41248538233E+01 0.44724600793E+01 0.49432558535E+01 0.54479067293E+01
 0.57564535230E+01 0.56139301534E+01 0.48815520904E+01 0.36210194901E+01 0.21064629520E+01
 0.74666078839E+00 -.56723490065E-01 -.56716604298E-01 0.26676396101E+01 0.38177487287E+01
 0.48815682897E+01 0.55720855642E+01 0.57645814899E+01 0.55206194854E+01 0.50375474446E+01
 0.45411407623E+01 0.41414236029E+01 0.38854668433E+01 0.37977223653E+01 0.38854666746E+01
 0.41414248586E+01 0.45411447271E+01 0.50375534596E+01 0.55206248232E+01 0.57645822379E+01
 0.55720782158E+01 0.48815520495E+01 0.38177271019E+01 0.26676193464E+01 0.17837600702E+01
 0.14525673983E+01 0.17837721894E+01 0.43318922111E+01 0.50871230123E+01 0.56139375474E+01
 0.57645814899E+01 0.55425022508E+01 0.50838731332E+01 0.45817353397E+01 0.41505767936E+01
 0.38403977529E+01 0.36794209075E+01 0.36794196338E+01 0.38403955654E+01 0.41505769124E+01
 0.45817395344E+01 0.50838804306E+01 0.55425096698E+01 0.57645852867E+01 0.56139346321E+01
 0.50871128428E+01 0.43318780195E+01 0.36003608053E+01 0.31527894285E+01 0.31527942705E+01
 0.36003730980E+01 0.53985813222E+01 0.57066091019E+01 0.57564546400E+01 0.55206194854E+01
 0.50838731332E+01 0.45951070587E+01 0.41544614296E+01 0.38113735144E+01 0.35960893955E+01
 0.35230109053E+01 0.35960854088E+01 0.38113681378E+01 0.41544580393E+01 0.45951078672E+01
 0.50838782451E+01 0.55206268335E+01 0.57564608007E+01 0.57066111816E+01 0.53985789045E+01
 0.49670046285E+01 0.45994709748E+01 0.44561042505E+01 0.45994744059E+01 0.49670092269E+01
 0.57680569130E+01 0.57080224685E+01 0.54479051087E+01 0.50375474446E+01 0.45817353397E+01
 0.41544614296E+01 0.38013647716E+01 0.35532091221E+01 0.34261195077E+01 0.34261174563E+01
 0.35532035995E+01 0.38013574941E+01 0.41544547093E+01 0.45817313108E+01 0.50375471487E+01
 0.54479080644E+01 0.57080272855E+01 0.57680623567E+01 0.56613730075E+01 0.54870887482E+01
 0.53615246316E+01 0.53615230716E+01 0.54870847053E+01 0.56613677611E+01 0.55748655679E+01
 0.53093452771E+01 0.49432538886E+01 0.45411407623E+01 0.41505767936E+01 0.38113735144E+01
 0.35532091221E+01 0.33933986882E+01 0.33394985882E+01 0.33933974645E+01 0.35532061010E+01
 0.38113680167E+01 0.41505688447E+01 0.45411317221E+01 0.49432462717E+01 0.53093417075E+01
 0.55748674404E+01 0.57089972903E+01 0.57352187038E+01 0.57117911440E+01 0.56961251698E+01
 0.57117856228E+01 0.57352106292E+01 0.57089907811E+01 0.50969613319E+01 0.48012902473E+01
 0.44724587689E+01 0.41414236029E+01 0.38403977529E+01 0.35960893955E+01 0.34261195077E+01
 0.33394985882E+01 0.33395001689E+01 0.34261231766E+01 0.35960923416E+01 0.38403967317E+01
 0.41414168793E+01 0.44724475598E+01 0.48012783668E+01 0.50969529960E+01 0.53298506569E+01
 0.54798300231E+01 0.55561361182E+01 0.55841940238E+01 0.55841924616E+01 0.55561327554E+01
 0.54798280834E+01 0.53298533376E+01 0.46153849283E+01 0.43759316734E+01 0.41248532687E+01
 0.38854668433E+01 0.36794209075E+01 0.35230109053E+01 0.34261174563E+01 0.33933974645E+01
 0.34261231766E+01 0.35230199741E+01 0.36794294825E+01 0.38854711382E+01 0.41248511507E+01
 0.43759235726E+01 0.46153734758E+01 0.48231706018E+01 0.49864610028E+01 0.50995968175E+01
 0.51629543159E+01 0.51828861543E+01 0.51629568984E+01 0.50996024621E+01 0.49864699871E+01
 0.48231820519E+01 0.42546377621E+01 0.40989730694E+01 0.39418060565E+01 0.37977223653E+01
 0.36794196338E+01 0.35960854088E+01 0.35532035995E+01 0.35532061010E+01 0.35960923416E+01
 0.36794294825E+01 0.37977330165E+01 0.39418150162E+01 0.40989777964E+01 0.42546364426E+01
 0.43950979157E+01 0.45103494256E+01 0.45955084436E+01 0.46502612484E+01 0.46766927778E+01
 0.46766963980E+01 0.46502709509E+01 0.45955211696E+01 0.45103612740E+01 0.43951054409E+01
 0.40631779418E+01 0.40032686689E+01 0.39418061733E+01 0.38854666746E+01 0.38403955654E+01
 0.38113681378E+01 0.38013574941E+01 0.38113680167E+01 0.38403967317E+01 0.38854711382E+01
 0.39418150162E+01 0.40032806040E+01 0.40631892340E+01 0.41155580902E+01 0.41563876965E+01
 0.41844563517E+01 0.42011588803E+01 0.42093592664E+01 0.42117365775E+01 0.42093665958E+01
 0.42011695470E+01 0.41844646367E+01 0.41563892151E+01 0.41155518918E+01 0.40631773530E+01
 0.40989724812E+01 0.41248538233E+01 0.41414248586E+01 0.41505769124E+01 0.41544580393E+01
 0.41544547093E+01 0.41505688447E+01 0.41414168793E+01 0.41248511507E+01 0.40989777964E+01
 0.40631892340E+01 0.40188289235E+01 0.39692809411E+01 0.39195151357E+01 0.38752691049E+01
 0.38420702561E+01 0.38242726909E+01 0.38242743396E+01 0.38420735431E+01 0.38752702066E+01
 0.39195106804E+01 0.39692703449E+01 0.40188151110E+01 0.42546366142E+01 0.43759309696E+01
 0.44724600793E+01 0.45411447271E+01 0.45817395344E+01 0.45951078672E+01 0.45817313108E+01
 0.45411317221E+01 0.44724475598E+01 0.43759235726E+01 0.42546364426E+01 0.41155580902E+01
 0.39692809411E+01 0.38284024853E+01 0.37052939111E+01 0.36102265600E+01 0.35504391071E+01
 0.35300673457E+01 0.35504359109E+01 0.36102199828E+01 0.37052842941E+01 0.38283912864E+01
 0.39692706792E+01 0.41155517757E+01 0.46153841280E+01 0.48012896145E+01 0.49432558535E+01
 0.50375534596E+01 0.50838804306E+01 0.50838782451E+01 0.50375471487E+01 0.49432462717E+01
 0.48012783668E+01 0.46153734758E+01 0.43950979157E+01 0.41563876965E+01 0.39195151357E+01
 0.37052939111E+01 0.35312949466E+01 0.34097372046E+01 0.33475186461E+01 0.33475154833E+01
 0.34097287142E+01 0.35312840055E+01 0.37052845118E+01 0.39195107386E+01 0.41563896899E+01
 0.43951053815E+01 0.50969607309E+01 0.53093442440E+01 0.54479067293E+01 0.55206248232E+01
 0.55425096698E+01 0.55206268335E+01 0.54479080644E+01 0.53093417075E+01 0.50969529960E+01
 0.48231706018E+01 0.45103494256E+01 0.41844563517E+01 0.38752691049E+01 0.36102265600E+01
 0.34097372046E+01 0.32858811301E+01 0.32441184167E+01 0.32858765594E+01 0.34097307153E+01
 0.36102222631E+01 0.38752704113E+01 0.41844639774E+01 0.45103609956E+01 0.48231820623E+01
 0.55748641765E+01 0.57080200337E+01 0.57564535230E+01 0.57645822379E+01 0.57645852867E+01
 0.57564608007E+01 0.57080272855E+01 0.55748674404E+01 0.53298506569E+01 0.49864610028E+01
 0.45955084436E+01 0.42011588803E+01 0.38420702561E+01 0.35504391071E+01 0.33475186461E+01
 0.32441184167E+01 0.32441178153E+01 0.33475179363E+01 0.35504407595E+01 0.38420761535E+01
 0.42011685771E+01 0.45955190907E+01 0.49864689454E+01 0.53298532714E+01 0.57680539454E+01
 0.57066036036E+01 0.56139301534E+01 0.55720782158E+01 0.56139346321E+01 0.57066111816E+01
 0.57680623567E+01 0.57089972903E+01 0.54798300231E+01 0.50995968175E+01 0.46502612484E+01
 0.42093592664E+01 0.38242726909E+01 0.35300673457E+01 0.33475154833E+01 0.32858765594E+01
 0.33475179363E+01 0.35300721610E+01 0.38242795329E+01 0.42093669971E+01 0.46502676043E+01
 0.50995992950E+01 0.54798274828E+01 0.57089906630E+01 0.53985763248E+01 0.50871122759E+01
 0.48815520904E+01 0.48815520495E+01 0.50871128428E+01 0.53985789045E+01 0.56613730075E+01
 0.57352187038E+01 0.55561361182E+01 0.51629543159E+01 0.46766927778E+01 0.42117365775E+01
 0.38242743396E+01 0.35504359109E+01 0.34097287142E+01 0.34097307153E+01 0.35504407595E+01
 0.38242795329E+01 0.42117399232E+01 0.46766930420E+01 0.51629511191E+01 0.55561301605E+01
 0.57352119511E+01 0.56613677795E+01 0.43318846343E+01 0.38177316871E+01 0.36210194901E+01
 0.38177271019E+01 0.43318780195E+01 0.49670046285E+01 0.54870887482E+01 0.57117911440E+01
 0.55841940238E+01 0.51828861543E+01 0.46766963980E+01 0.42093665958E+01 0.38420735431E+01
 0.36102199828E+01 0.35312840055E+01 0.36102222631E+01 0.38420761535E+01 0.42093669971E+01
 0.46766930420E+01 0.51828794212E+01 0.55841863299E+01 0.57117859800E+01 0.54870886609E+01
 0.49670093916E+01 0.26676293527E+01 0.21064667359E+01 0.21064629520E+01 0.26676193464E+01
 0.36003608053E+01 0.45994709748E+01 0.53615246316E+01 0.56961251698E+01 0.55841924616E+01
 0.51629568984E+01 0.46502709509E+01 0.42011695470E+01 0.38752702066E+01 0.37052842941E+01
 0.37052845118E+01 0.38752704113E+01 0.42011685771E+01 0.46502676043E+01 0.51629511191E+01
 0.55841863299E+01 0.56961224079E+01 0.53615282611E+01 0.45994808292E+01 0.36003732329E+01
 0.74666813778E+00 0.36046562023E+00 0.74666078839E+00 0.17837600702E+01 0.31527894285E+01
 0.44561042505E+01 0.53615230716E+01 0.57117856228E+01 0.55561327554E+01 0.50996024621E+01
 0.45955211696E+01 0.41844646367E+01 0.39195106804E+01 0.38283912864E+01 0.39195107386E+01
 0.41844639774E+01 0.45955190907E+01 0.50995992950E+01 0.55561301605E+01 0.57117859800E+01
 0.53615282611E+01 0.44561144308E+01 0.31528025031E+01 0.17837722652E+01 -.94330490706E+00
 -.94330763937E+00 -.56723490065E-01 0.14525673983E+01 0.31527942705E+01 0.45994744059E+01
 0.54870847053E+01 0.57352106292E+01 0.54798280834E+01 0.49864699871E+01 0.45103612740E+01
 0.41563892151E+01 0.39692703449E+01 0.39692706792E+01 0.41563896899E+01 0.45103609956E+01
 0.49864689454E+01 0.54798274828E+01 0.57352119511E+01 0.54870886609E+01 0.45994808292E+01
 0.31528025031E+01 0.14525761584E+01 -.56716462672E-01 -.19316641028E+01 -.14258295476E+01
 -.56716604298E-01 0.17837721894E+01 0.36003730980E+01 0.49670092269E+01 0.56613677611E+01
 0.57089907811E+01 0.53298533376E+01 0.48231820519E+01 0.43951054409E+01 0.41155518918E+01
 0.40188151110E+01 0.41155517757E+01 0.43951053815E+01 0.48231820623E+01 0.53298532714E+01
 0.57089906630E+01 0.56613677795E+01 0.49670093916E+01 0.36003732329E+01 0.17837722652E+01
 -.56716462672E-01 -.14258293809E+01 -.48631985178E+00 0.74667938560E+00 0.23924579806E+01
 0.39949516743E+01 0.51668309805E+01 0.57135950116E+01 0.56718320908E+01 0.52563186428E+01
 0.47485079497E+01 0.43266691836E+01 0.40527323467E+01 0.39581906233E+01 0.40527319166E+01
 0.43266691452E+01 0.47485086495E+01 0.52563192221E+01 0.56718309136E+01 0.57135901762E+01
 0.51668207885E+01 0.39949359126E+01 0.23924392778E+01 0.74666269518E+00 -.48632960766E+00
 -.94330502631E+00 0.74667938560E+00 0.21064878272E+01 0.36210431051E+01 0.48815683920E+01
 0.56139376139E+01 0.57564547042E+01 0.54479052066E+01 0.49432539482E+01 0.44724587333E+01
 0.41248532096E+01 0.39418060457E+01 0.39418061624E+01 0.41248537649E+01 0.44724600430E+01
 0.49432559021E+01 0.54479068015E+01 0.57564535537E+01 0.56139301896E+01 0.48815521700E+01
 0.36210195312E+01 0.21064628836E+01 0.74666067318E+00 -.56723576321E-01 -.56716693764E-01
 0.23924579806E+01 0.36210431051E+01 0.47685857682E+01 0.55321706783E+01 0.57767363121E+01
 0.55608320956E+01 0.50852871039E+01 0.45857696730E+01 0.41819827723E+01 0.39228766530E+01
 0.38339632609E+01 0.39228766595E+01 0.41819842730E+01 0.45857738725E+01 0.50852933226E+01
 0.55608375205E+01 0.57767367971E+01 0.55321624308E+01 0.47685678520E+01 0.36210192116E+01
 0.23924354482E+01 0.14525625079E+01 0.11010478482E+01 0.14525760721E+01 0.39949516743E+01
 0.48815683920E+01 0.55321706783E+01 0.57773077365E+01 0.56104310757E+01 0.51698293737E+01
 0.46624315531E+01 0.42225720787E+01 0.39047129084E+01 0.37393340943E+01 0.37393332381E+01
 0.39047120330E+01 0.42225744617E+01 0.46624387045E+01 0.51698395180E+01 0.56104401640E+01
 0.57773114011E+01 0.55321660928E+01 0.48815558831E+01 0.39949353288E+01 0.31527887879E+01
 0.26418955651E+01 0.26419009131E+01 0.31528025295E+01 0.51668309805E+01 0.56139376139E+01
 0.57767363121E+01 0.56104310757E+01 0.51975651675E+01 0.47009170607E+01 0.42465665899E+01
 0.38904954073E+01 0.36661787799E+01 0.35898883702E+01 0.36661761256E+01 0.38904927801E+01
 0.42465673979E+01 0.47009231536E+01 0.51975756780E+01 0.56104427158E+01 0.57767448916E+01
 0.56139402564E+01 0.51668278433E+01 0.45994749569E+01 0.41327535096E+01 0.39530121956E+01
 0.41327578212E+01 0.45994807608E+01 0.57135950116E+01 0.57564547042E+01 0.55608320956E+01
 0.51698293737E+01 0.47009170607E+01 0.42544743895E+01 0.38827079428E+01 0.36201816872E+01
 0.34853712168E+01 0.34853693184E+01 0.36201767704E+01 0.38827022671E+01 0.42544711258E+01
 0.47009188711E+01 0.51698367819E+01 0.55608430478E+01 0.57564659133E+01 0.57136039580E+01
 0.54870944344E+01 0.52067950686E+01 0.50189964173E+01 0.50189954324E+01 0.52067919075E+01
 0.54870885605E+01 0.56718320908E+01 0.54479052066E+01 0.50852871039E+01 0.46624315531E+01
 0.42465665899E+01 0.38827079428E+01 0.36045158919E+01 0.34318546949E+01 0.33735499111E+01
 0.34318517608E+01 0.36045104203E+01 0.38827010060E+01 0.42465600102E+01 0.46624274884E+01
 0.50852873566E+01 0.54479105775E+01 0.56718419177E+01 0.57352240752E+01 0.56823404026E+01
 0.55971796410E+01 0.55582296283E+01 0.55971731395E+01 0.56823294677E+01 0.57352120307E+01
 0.52563186428E+01 0.49432539482E+01 0.45857696730E+01 0.42225720787E+01 0.38904954073E+01
 0.36201816872E+01 0.34318546949E+01 0.33358292628E+01 0.33358294460E+01 0.34318546077E+01
 0.36201797889E+01 0.38904902459E+01 0.42225635503E+01 0.45857598660E+01 0.49432466646E+01
 0.52563173314E+01 0.54798330170E+01 0.55995346410E+01 0.56405525316E+01 0.56454631983E+01
 0.56454598974E+01 0.56405442129E+01 0.55995254271E+01 0.54798276605E+01 0.47485079497E+01
 0.44724587333E+01 0.41819827723E+01 0.39047129084E+01 0.36661787799E+01 0.34853712168E+01
 0.33735499111E+01 0.33358294460E+01 0.33735539313E+01 0.34853767235E+01 0.36661821418E+01
 0.39047113020E+01 0.41819755979E+01 0.44724480061E+01 0.47484973395E+01 0.49864617541E+01
 0.51689966503E+01 0.52861662355E+01 0.53460726909E+01 0.53636903524E+01 0.53460717254E+01
 0.52861659632E+01 0.51689994395E+01 0.49864689761E+01 0.43266691836E+01 0.41248532096E+01
 0.39228766530E+01 0.37393340943E+01 0.35898883702E+01 0.34853693184E+01 0.34318517608E+01
 0.34318546077E+01 0.34853767235E+01 0.35898975836E+01 0.37393420282E+01 0.39228807640E+01
 0.41248519584E+01 0.43266624715E+01 0.45103502532E+01 0.46623156541E+01 0.47754371940E+01
 0.48486036784E+01 0.48839814789E+01 0.48839841297E+01 0.48486111307E+01 0.47754480409E+01
 0.46623277437E+01 0.45103609262E+01 0.40527323467E+01 0.39418060457E+01 0.38339632609E+01
 0.37393332381E+01 0.36661761256E+01 0.36201767704E+01 0.36045104203E+01 0.36201797889E+01
 0.36661821418E+01 0.37393420282E+01 0.38339737800E+01 0.39418158611E+01 0.40527381308E+01
 0.41563888786E+01 0.42443197655E+01 0.43116433105E+01 0.43573654029E+01 0.43831979852E+01
 0.43914682800E+01 0.43832058456E+01 0.43573779491E+01 0.43116557180E+01 0.42443276053E+01
 0.41563897385E+01 0.39581906233E+01 0.39418061624E+01 0.39228766595E+01 0.39047120330E+01
 0.38904927801E+01 0.38827022671E+01 0.38827010060E+01 0.38904902459E+01 0.39047113020E+01
 0.39228807640E+01 0.39418158611E+01 0.39582033908E+01 0.39692819708E+01 0.39735598006E+01
 0.39713574286E+01 0.39648662159E+01 0.39575154828E+01 0.39527626361E+01 0.39527658159E+01
 0.39575229968E+01 0.39648732681E+01 0.39713593079E+01 0.39735544068E+01 0.39692707844E+01
 0.40527319166E+01 0.41248537649E+01 0.41819842730E+01 0.42225744617E+01 0.42465673979E+01
 0.42544711258E+01 0.42465600102E+01 0.42225635503E+01 0.41819755979E+01 0.41248519584E+01
 0.40527381308E+01 0.39692819708E+01 0.38802244653E+01 0.37927694851E+01 0.37146009169E+01
 0.36528683278E+01 0.36133323787E+01 0.35997237633E+01 0.36133330890E+01 0.36528675592E+01
 0.37145961156E+01 0.37927598209E+01 0.38802117830E+01 0.39692702866E+01 0.43266691452E+01
 0.44724600430E+01 0.45857738725E+01 0.46624387045E+01 0.47009231536E+01 0.47009188711E+01
 0.46624274884E+01 0.45857598660E+01 0.44724480061E+01 0.43266624715E+01 0.41563888786E+01
 0.39735598006E+01 0.37927694851E+01 0.36289777703E+01 0.34951974719E+01 0.34010770991E+01
 0.33526233422E+01 0.33526211799E+01 0.34010708346E+01 0.34951880385E+01 0.36289670927E+01
 0.37927601291E+01 0.39735542652E+01 0.41563890626E+01 0.47485086495E+01 0.49432559021E+01
 0.50852933226E+01 0.51698395180E+01 0.51975756780E+01 0.51698367819E+01 0.50852873566E+01
 0.49432466646E+01 0.47484973395E+01 0.45103502532E+01 0.42443197655E+01 0.39713574286E+01
 0.37146009169E+01 0.34951974719E+01 0.33291387499E+01 0.32263263195E+01 0.31915968109E+01
 0.32263203228E+01 0.33291293844E+01 0.34951888873E+01 0.37145968956E+01 0.39713597059E+01
 0.42443276053E+01 0.45103612632E+01 0.52563192221E+01 0.54479068015E+01 0.55608375205E+01
 0.56104401640E+01 0.56104427158E+01 0.55608430478E+01 0.54479105775E+01 0.52563173314E+01
 0.49864617541E+01 0.46623156541E+01 0.43116433105E+01 0.39648662159E+01 0.36528683278E+01
 0.34010770991E+01 0.32263263195E+01 0.31373325835E+01 0.31373304511E+01 0.32263214854E+01
 0.34010733476E+01 0.36528694128E+01 0.39648735644E+01 0.43116551311E+01 0.46623278854E+01
 0.49864700696E+01 0.56718309136E+01 0.57564535537E+01 0.57767367971E+01 0.57773114011E+01
 0.57767448916E+01 0.57564659133E+01 0.56718419177E+01 0.54798330170E+01 0.51689966503E+01
 0.47754371940E+01 0.43573654029E+01 0.39575154828E+01 0.36133323787E+01 0.33526233422E+01
 0.31915968109E+01 0.31373304511E+01 0.31915966298E+01 0.33526244674E+01 0.36133367918E+01
 0.39575239283E+01 0.43573760354E+01 0.47754459624E+01 0.51689994395E+01 0.54798280478E+01
 0.57135901762E+01 0.56139301896E+01 0.55321624308E+01 0.55321660928E+01 0.56139402564E+01
 0.57136039580E+01 0.57352240752E+01 0.55995346410E+01 0.52861662355E+01 0.48486036784E+01
 0.43831979852E+01 0.39527626361E+01 0.35997237633E+01 0.33526211799E+01 0.32263203228E+01
 0.32263214854E+01 0.33526244674E+01 0.35997287398E+01 0.39527686287E+01 0.43832035086E+01
 0.48486061669E+01 0.52861631372E+01 0.55995252855E+01 0.57352105472E+01 0.51668207885E+01
 0.48815521700E+01 0.47685678520E+01 0.48815558831E+01 0.51668278433E+01 0.54870944344E+01
 0.56823404026E+01 0.56405525316E+01 0.53460726909E+01 0.48839814789E+01 0.43914682800E+01
 0.39527658159E+01 0.36133330890E+01 0.34010708346E+01 0.33291293844E+01 0.34010733476E+01
 0.36133367918E+01 0.39527686287E+01 0.43914682045E+01 0.48839773762E+01 0.53460647322E+01
 0.56405421009E+01 0.56823294677E+01 0.54870848033E+01 0.39949359126E+01 0.36210195312E+01
 0.36210192116E+01 0.39949353288E+01 0.45994749569E+01 0.52067950686E+01 0.55971796410E+01
 0.56454631983E+01 0.53636903524E+01 0.48839841297E+01 0.43832058456E+01 0.39575229968E+01
 0.36528675592E+01 0.34951880385E+01 0.34951888873E+01 0.36528694128E+01 0.39575239283E+01
 0.43832035086E+01 0.48839773762E+01 0.53636804848E+01 0.56454533959E+01 0.55971728064E+01