   1   1   0   0
  0.1600000E+02  0.2828427E-09  0.2828427E-09  0.2828427E-09  0.5000000E-15
  1.000000000000000E-004
  CAR 
 fcc Si                                  
     29.24468133     -5.87324645  301     10.05414491      1.00000000
     -5.873  0.0000E+00  0.0000E+00
     -5.756  0.0000E+00  0.0000E+00
     -5.639  0.0000E+00  0.0000E+00
     -5.522  0.0000E+00  0.0000E+00
     -5.405  0.0000E+00  0.0000E+00
     -5.288  0.0000E+00  0.0000E+00
     -5.171  0.0000E+00  0.0000E+00
     -5.054  0.0000E+00  0.0000E+00
     -4.937  0.0000E+00  0.0000E+00
     -4.820  0.5309E-17  0.6214E-18
     -4.703  0.5600E-12  0.6556E-13
     -4.586  0.4090E-08  0.4788E-09
     -4.469  0.2162E-05  0.2535E-06
     -4.351  0.9160E-04  0.1098E-04
     -4.234  0.3856E-03  0.5611E-04
     -4.117  0.8412E-03  0.1546E-03
     -4.000  0.3904E-02  0.6115E-03
     -3.883  0.3740E-02  0.1049E-02
     -3.766  0.8938E-03  0.1154E-02
     -3.649  0.3017E-02  0.1507E-02
     -3.532  0.4303E-02  0.2011E-02
     -3.415  0.6516E-02  0.2774E-02
     -3.298  0.1078E-01  0.4035E-02
     -3.181  0.3244E-02  0.4415E-02
     -3.064  0.7851E-03  0.4507E-02
     -2.947  0.2316E-02  0.4778E-02
     -2.830  0.3378E-02  0.5173E-02
     -2.713  0.1342E-01  0.6744E-02
     -2.596  0.1277E-01  0.8239E-02
     -2.479  0.2774E-02  0.8564E-02
     -2.361  0.6744E-02  0.9353E-02
     -2.244  0.7960E-02  0.1029E-01
     -2.127  0.9323E-02  0.1138E-01
     -2.010  0.9996E-02  0.1255E-01
     -1.893  0.1333E-02  0.1270E-01
     -1.776  0.1662E-02  0.1290E-01
     -1.659  0.4761E-02  0.1345E-01
     -1.542  0.8045E-02  0.1440E-01
     -1.425  0.2528E-01  0.1736E-01
     -1.308  0.1616E-01  0.1925E-01
     -1.191  0.2893E-02  0.1959E-01
     -1.074  0.7812E-02  0.2050E-01
     -0.957  0.7163E-02  0.2134E-01
     -0.840  0.1076E-01  0.2260E-01
     -0.723  0.1515E-01  0.2437E-01
     -0.606  0.4199E-02  0.2486E-01
     -0.488  0.1803E-02  0.2507E-01
     -0.371  0.3332E-02  0.2546E-01
     -0.254  0.1048E-01  0.2669E-01
     -0.137  0.2467E-01  0.2958E-01
     -0.020  0.1047E-01  0.3080E-01
      0.097  0.5092E-02  0.3140E-01
      0.214  0.1801E-01  0.3351E-01
      0.331  0.1444E-01  0.3520E-01
      0.448  0.2704E-01  0.3836E-01
      0.565  0.1248E-01  0.3983E-01
      0.682  0.7609E-03  0.3991E-01
      0.799  0.1683E-02  0.4011E-01
      0.916  0.2650E-02  0.4042E-01
      1.033  0.1138E-01  0.4175E-01
      1.150  0.2466E-01  0.4464E-01
      1.267  0.9399E-02  0.4574E-01
      1.384  0.6590E-02  0.4651E-01
      1.502  0.1392E-01  0.4814E-01
      1.619  0.1442E-01  0.4983E-01
      1.736  0.2773E-01  0.5308E-01
      1.853  0.1121E-01  0.5439E-01
      1.970  0.2728E-02  0.5471E-01
      2.087  0.9070E-02  0.5577E-01
      2.204  0.1296E-01  0.5729E-01
      2.321  0.3658E-01  0.6157E-01
      2.438  0.2801E-01  0.6485E-01
      2.555  0.8903E-02  0.6589E-01
      2.672  0.8637E-02  0.6690E-01
      2.789  0.3441E-02  0.6730E-01
      2.906  0.1475E-01  0.6903E-01
      3.023  0.1309E-01  0.7056E-01
      3.140  0.3607E-02  0.7098E-01
      3.257  0.9031E-02  0.7204E-01
      3.374  0.4848E-02  0.7261E-01
      3.492  0.1427E-01  0.7428E-01
      3.609  0.2970E-01  0.7775E-01
      3.726  0.1992E-01  0.8009E-01
      3.843  0.2150E-01  0.8260E-01
      3.960  0.2225E-01  0.8521E-01
      4.077  0.1249E-01  0.8667E-01
      4.194  0.2838E-01  0.8999E-01
      4.311  0.2303E-01  0.9269E-01
      4.428  0.5773E-02  0.9336E-01
      4.545  0.2300E-03  0.9339E-01
      4.662  0.5034E-03  0.9345E-01
      4.779  0.1136E-01  0.9478E-01
      4.896  0.4171E-01  0.9966E-01
      5.013  0.3515E-01  0.1038E+00
      5.130  0.2197E-01  0.1063E+00
      5.247  0.4834E-02  0.1069E+00
      5.364  0.3491E-02  0.1073E+00
      5.482  0.1023E-01  0.1085E+00
      5.599  0.1183E-01  0.1099E+00
      5.716  0.1103E-01  0.1112E+00
      5.833  0.5822E-02  0.1119E+00
      5.950  0.1045E-01  0.1131E+00
      6.067  0.3857E-01  0.1176E+00
      6.184  0.3423E-01  0.1216E+00
      6.301  0.1780E-01  0.1237E+00
      6.418  0.2036E-01  0.1261E+00
      6.535  0.1665E-01  0.1280E+00
      6.652  0.2986E-01  0.1315E+00
      6.769  0.3088E-01  0.1351E+00
      6.886  0.1215E-01  0.1366E+00
      7.003  0.9011E-02  0.1376E+00
      7.120  0.1025E-01  0.1388E+00
      7.237  0.8773E-02  0.1399E+00
      7.355  0.1553E-01  0.1417E+00
      7.472  0.1970E-01  0.1440E+00
      7.589  0.2588E-01  0.1470E+00
      7.706  0.2552E-01  0.1500E+00
      7.823  0.2269E-01  0.1527E+00
      7.940  0.1672E-01  0.1546E+00
      8.057  0.3038E-02  0.1550E+00
      8.174  0.7741E-02  0.1559E+00
      8.291  0.9239E-02  0.1570E+00
      8.408  0.1156E-01  0.1583E+00
      8.525  0.2707E-01  0.1615E+00
      8.642  0.5545E-01  0.1680E+00
      8.759  0.4022E-01  0.1727E+00
      8.876  0.9764E-02  0.1738E+00
      8.993  0.1038E-01  0.1750E+00
      9.110  0.2620E-01  0.1781E+00
      9.227  0.1827E-01  0.1802E+00
      9.345  0.6171E-02  0.1810E+00
      9.462  0.4201E-02  0.1814E+00
      9.579  0.1993E-01  0.1838E+00
      9.696  0.4250E-01  0.1888E+00
      9.813  0.4148E-01  0.1936E+00
      9.930  0.2104E-01  0.1961E+00
     10.047  0.3179E-01  0.1998E+00
     10.164  0.1890E-01  0.2020E+00
     10.281  0.1543E-01  0.2038E+00
     10.398  0.1772E-01  0.2059E+00
     10.515  0.1007E-01  0.2071E+00
     10.632  0.3802E-02  0.2075E+00
     10.749  0.1845E-02  0.2077E+00
     10.866  0.2651E-02  0.2080E+00
     10.983  0.2441E-01  0.2109E+00
     11.100  0.5204E-01  0.2170E+00
     11.217  0.4771E-01  0.2226E+00
     11.335  0.2128E-01  0.2251E+00
     11.452  0.2485E-01  0.2280E+00
     11.569  0.3371E-01  0.2319E+00
     11.686  0.1849E-01  0.2341E+00
     11.803  0.9409E-02  0.2352E+00
     11.920  0.1988E-01  0.2375E+00
     12.037  0.1513E-01  0.2393E+00
     12.154  0.1878E-01  0.2415E+00
     12.271  0.4459E-01  0.2467E+00
     12.388  0.3702E-01  0.2510E+00
     12.505  0.2303E-01  0.2537E+00
     12.622  0.2519E-01  0.2567E+00
     12.739  0.3170E-01  0.2604E+00
     12.856  0.2637E-01  0.2635E+00
     12.973  0.2050E-01  0.2659E+00
     13.090  0.7536E-02  0.2668E+00
     13.207  0.1431E-01  0.2684E+00
     13.325  0.3848E-01  0.2729E+00
     13.442  0.3515E-01  0.2771E+00
     13.559  0.2097E-01  0.2795E+00
     13.676  0.1549E-01  0.2813E+00
     13.793  0.1888E-01  0.2835E+00
     13.910  0.3261E-01  0.2873E+00
     14.027  0.4410E-01  0.2925E+00
     14.144  0.1855E-01  0.2947E+00
     14.261  0.1529E-01  0.2965E+00
     14.378  0.4111E-01  0.3013E+00
     14.495  0.3394E-01  0.3053E+00
     14.612  0.4521E-01  0.3105E+00
     14.729  0.3045E-01  0.3141E+00
     14.846  0.8693E-02  0.3151E+00
     14.963  0.2313E-01  0.3178E+00
     15.080  0.2295E-01  0.3205E+00
     15.198  0.1765E-01  0.3226E+00
     15.315  0.7067E-02  0.3234E+00
     15.432  0.2636E-02  0.3237E+00
     15.549  0.9354E-02  0.3248E+00
     15.666  0.4360E-01  0.3299E+00
     15.783  0.5843E-01  0.3368E+00
     15.900  0.2383E-01  0.3396E+00
     16.017  0.2710E-01  0.3427E+00
     16.134  0.2762E-01  0.3460E+00
     16.251  0.1488E-01  0.3477E+00
     16.368  0.2012E-01  0.3501E+00
     16.485  0.2975E-01  0.3535E+00
     16.602  0.1941E-01  0.3558E+00
     16.719  0.2110E-01  0.3583E+00
     16.836  0.2029E-01  0.3607E+00
     16.953  0.1595E-01  0.3625E+00
     17.070  0.2485E-01  0.3654E+00
     17.188  0.4108E-01  0.3702E+00
     17.305  0.4328E-01  0.3753E+00
     17.422  0.2670E-01  0.3784E+00
     17.539  0.1156E-01  0.3798E+00
     17.656  0.8016E-02  0.3807E+00
     17.773  0.1344E-01  0.3823E+00
     17.890  0.1667E-01  0.3842E+00
     18.007  0.1277E-01  0.3857E+00
     18.124  0.2169E-01  0.3883E+00
     18.241  0.3253E-01  0.3921E+00
     18.358  0.3473E-01  0.3962E+00
     18.475  0.3917E-01  0.4007E+00
     18.592  0.1600E-01  0.4026E+00
     18.709  0.2832E-01  0.4059E+00
     18.826  0.4324E-01  0.4110E+00
     18.943  0.4058E-01  0.4157E+00
     19.060  0.4504E-01  0.4210E+00
     19.178  0.1717E-01  0.4230E+00
     19.295  0.9577E-02  0.4241E+00
     19.412  0.4481E-02  0.4247E+00
     19.529  0.2002E-01  0.4270E+00
     19.646  0.4257E-01  0.4320E+00
     19.763  0.5554E-01  0.4385E+00
     19.880  0.4790E-01  0.4441E+00
     19.997  0.2826E-01  0.4474E+00
     20.114  0.2467E-01  0.4503E+00
     20.231  0.2735E-01  0.4535E+00
     20.348  0.1021E-01  0.4547E+00
     20.465  0.1102E-01  0.4560E+00
     20.582  0.2050E-01  0.4584E+00
     20.699  0.2422E-01  0.4612E+00
     20.816  0.3109E-01  0.4649E+00
     20.933  0.1717E-01  0.4669E+00
     21.050  0.7302E-02  0.4677E+00
     21.168  0.3070E-01  0.4713E+00
     21.285  0.6931E-01  0.4794E+00
     21.402  0.5735E-01  0.4861E+00
     21.519  0.2039E-01  0.4885E+00
     21.636  0.2064E-01  0.4909E+00
     21.753  0.2230E-01  0.4936E+00
     21.870  0.2777E-01  0.4968E+00
     21.987  0.2873E-01  0.5002E+00
     22.104  0.2134E-01  0.5027E+00
     22.221  0.2316E-01  0.5054E+00
     22.338  0.2311E-01  0.5081E+00
     22.455  0.3513E-01  0.5122E+00
     22.572  0.2795E-01  0.5155E+00
     22.689  0.2440E-01  0.5183E+00
     22.806  0.2775E-01  0.5216E+00
     22.923  0.5909E-01  0.5285E+00
     23.041  0.6326E-01  0.5359E+00
     23.158  0.2326E-01  0.5386E+00
     23.275  0.2051E-01  0.5410E+00
     23.392  0.2452E-01  0.5439E+00
     23.509  0.2869E-01  0.5472E+00
     23.626  0.3122E-01  0.5509E+00
     23.743  0.9630E-02  0.5520E+00
     23.860  0.2345E-02  0.5523E+00
     23.977  0.1731E-01  0.5543E+00
     24.094  0.2653E-01  0.5574E+00
     24.211  0.3841E-01  0.5619E+00
     24.328  0.3125E-01  0.5656E+00
     24.445  0.2893E-01  0.5690E+00
     24.562  0.4187E-01  0.5739E+00
     24.679  0.3881E-01  0.5784E+00
     24.796  0.1038E-01  0.5796E+00
     24.913  0.2526E-02  0.5799E+00
     25.031  0.9090E-02  0.5810E+00
     25.148  0.2488E-01  0.5839E+00
     25.265  0.1347E-01  0.5855E+00
     25.382  0.7634E-02  0.5864E+00
     25.499  0.2828E-01  0.5897E+00
     25.616  0.2712E-01  0.5929E+00
     25.733  0.6719E-02  0.5936E+00
     25.850  0.7943E-03  0.5937E+00
     25.967  0.5831E-02  0.5944E+00
     26.084  0.7927E-02  0.5954E+00
     26.201  0.1176E-02  0.5955E+00
     26.318  0.1603E-04  0.5955E+00
     26.435  0.1699E-07  0.5955E+00
     26.552  0.1287E-11  0.5955E+00
     26.669  0.1218E-09  0.5955E+00
     26.786  0.5500E-06  0.5955E+00
     26.903  0.1826E-03  0.5955E+00
     27.021  0.5000E-02  0.5961E+00
     27.138  0.1365E-01  0.5977E+00
     27.255  0.4147E-02  0.5982E+00
     27.372  0.1243E-03  0.5982E+00
     27.489  0.1843E-03  0.5982E+00
     27.606  0.4030E-02  0.5987E+00
     27.723  0.8940E-02  0.5997E+00
     27.840  0.2198E-02  0.6000E+00
     27.957  0.5189E-04  0.6000E+00
     28.074  0.9815E-07  0.6000E+00
     28.191  0.1344E-10  0.6000E+00
     28.308  0.1266E-15  0.6000E+00
     28.425  0.0000E+00  0.6000E+00
     28.542  0.0000E+00  0.6000E+00
     28.659  0.0000E+00  0.6000E+00
     28.776  0.0000E+00  0.6000E+00
     28.894  0.0000E+00  0.6000E+00
     29.011  0.0000E+00  0.6000E+00
     29.128  0.0000E+00  0.6000E+00
     29.245  0.0000E+00  0.6000E+00
