    1    1   20    1
  0.1600000E+02  0.2828427E-09  0.2828427E-09  0.2828427E-09  0.5000000E-15
  1.000000000000000E-004
  CAR 
 fcc Si                                  
      4     56      6
 
  0.0000000E+00  0.0000000E+00  0.0000000E+00  0.7513148E-03
      1         -4.276977   1.000000
      2         21.350430   0.000000
      3         21.350462   0.000000
      4         21.350462   0.000000
      5         22.206718   0.000000
      6         22.206739   0.000000
 
  0.9090909E-01  0.0000000E+00  0.0000000E+00  0.6010518E-02
      1         -4.036104   1.000000
      2         18.202966   0.000000
      3         20.404599   0.000000
      4         20.404626   0.000000
      5         23.398033   0.000000
      6         23.435229   0.000000
 
  0.1818182E+00  0.0000000E+00  0.0000000E+00  0.6010518E-02
      1         -3.314888   1.000000
      2         14.315537   0.000000
      3         19.498543   0.000000
      4         19.498571   0.000000
      5         23.463280   0.000000
      6         24.448628   0.000000
 
  0.2727273E+00  0.0000000E+00  0.0000000E+00  0.6010518E-02
      1         -2.119401   1.000000
      2         10.609321   0.000000
      3         18.951616   0.000000
      4         18.951645   0.000000
      5         23.333673   0.000000
      6         23.359656   0.000000
 
  0.3636364E+00  0.0000000E+00  0.0000000E+00  0.6010518E-02
      1         -0.459670   1.000000
      2          7.239263   1.000000
      3         18.740066   0.000000
      4         18.740096   0.000000
      5         22.023742   0.000000
      6         22.023817   0.000000
 
  0.4545455E+00  0.0000000E+00  0.0000000E+00  0.6010518E-02
      1          1.637459   1.000000
      2          4.281673   1.000000
      3         18.753017   0.000000
      4         18.753044   0.000000
      5         21.212697   0.000000
      6         21.212778   0.000000
 
  0.9090909E-01  0.9090909E-01  0.1261617E-17  0.4507889E-02
      1         -3.955874   1.000000
      2         19.029527   0.000000
      3         19.029543   0.000000
      4         20.624578   0.000000
      5         20.692558   0.000000
      6         24.927634   0.000000
 
  0.1818182E+00  0.9090909E-01  0.0000000E+00  0.1803156E-01
      1         -3.394780   1.000000
      2         15.752993   0.000000
      3         17.992360   0.000000
      4         19.732248   0.000000
      5         21.551580   0.000000
      6         24.255022   0.000000
 
  0.2727273E+00  0.9090909E-01  0.0000000E+00  0.1803156E-01
      1         -2.357624   1.000000
      2         11.996943   0.000000
      3         17.355431   0.000000
      4         18.934300   0.000000
      5         21.172428   0.000000
      6         24.575161   0.000000
 
  0.3636364E+00  0.9090909E-01  0.0000000E+00  0.1803156E-01
      1         -0.852479   1.000000
      2          8.517596   1.000000
      3         17.124895   0.000000
      4         18.139865   0.000000
      5         20.208505   0.000000
      6         24.413044   0.000000
 
  0.4545455E+00  0.9090909E-01  0.0000000E+00  0.1803156E-01
      1          1.104933   1.000000
      2          5.417554   1.000000
      3         17.218285   0.000000
      4         17.294400   0.000000
      5         20.054378   0.000000
      6         23.221411   0.000000
 
 -0.4545455E+00  0.9090909E-01  0.0000000E+00  0.1803156E-01
      1          2.584869   1.000000
      2          3.650840   1.000000
      3         16.442930   0.000000
      4         17.840066   0.000000
      5         20.571298   0.000000
      6         22.423799   0.000000
 
 -0.3636364E+00  0.9090909E-01  0.0000000E+00  0.1803156E-01
      1          0.403871   1.000000
      2          6.403804   1.000000
      3         16.000487   0.000000
      4         18.699400   0.000000
      5         21.585062   0.000000
      6         22.122400   0.000000
 
 -0.2727273E+00  0.9090909E-01  0.0000000E+00  0.1803156E-01
      1         -1.405519   1.000000
      2          9.636978   1.000000
      3         15.955158   0.000000
      4         19.725966   0.000000
      5         22.429290   0.000000
      6         23.008166   0.000000
 
 -0.1818182E+00  0.9090909E-01  0.0000000E+00  0.1803156E-01
      1         -2.755916   1.000000
      2         13.220155   0.000000
      3         16.326183   0.000000
      4         20.716099   0.000000
      5         23.253018   0.000000
      6         24.415889   0.000000
 
 -0.9090909E-01  0.9090909E-01  0.0000000E+00  0.9015778E-02
      1         -3.635078   1.000000
      2         16.858413   0.000000
      3         17.267110   0.000000
      4         21.432040   0.000000
      5         22.830295   0.000000
      6         24.021638   0.000000
 
  0.1818182E+00  0.1818182E+00  0.2523234E-17  0.4507889E-02
      1         -2.994841   1.000000
      2         16.824073   0.000000
      3         16.824089   0.000000
      4         18.441062   0.000000
      5         18.696696   0.000000
      6         21.730915   0.000000
 
  0.2727273E+00  0.1818182E+00  0.0000000E+00  0.1803156E-01
      1         -2.118374   1.000000
      2         13.741292   0.000000
      3         16.054078   0.000000
      4         17.281112   0.000000
      5         18.760487   0.000000
      6         21.254230   0.000000
 
  0.3636364E+00  0.1818182E+00  0.0000000E+00  0.1803156E-01
      1         -0.771995   1.000000
      2         10.216518   0.010829
      3         15.698103   0.000000
      4         15.731511   0.000000
      5         18.409313   0.000000
      6         23.416852   0.000000
 
  0.4545455E+00  0.1818182E+00  0.0000000E+00  0.1803156E-01
      1          1.032872   1.000000
      2          7.004963   1.000000
      3         14.331532   0.000000
      4         15.757300   0.000000
      5         18.436407   0.000000
      6         25.983471   0.000000
 
 -0.4545455E+00  0.1818182E+00  0.0000000E+00  0.1803156E-01
      1          3.211195   1.000000
      2          4.257668   1.000000
      3         13.281160   0.000000
      4         16.225978   0.000000
      5         18.943181   0.000000
      6         25.156109   0.000000
 
 -0.3636364E+00  0.1818182E+00  0.0000000E+00  0.1803156E-01
      1          1.731004   1.000000
      2          6.018644   1.000000
      3         12.644021   0.000000
      4         17.092184   0.000000
      5         19.902770   0.000000
      6         24.604678   0.000000
 
 -0.2727273E+00  0.1818182E+00  0.0000000E+00  0.1803156E-01
      1         -0.220732   1.000000
      2          9.084504   1.000000
      3         12.451396   0.000000
      4         18.318319   0.000000
      5         21.279511   0.000000
      6         24.483419   0.000000
 
 -0.1818182E+00  0.1818182E+00  0.0000000E+00  0.9015778E-02
      1         -1.721915   1.000000
      2         12.202074   0.000000
      3         13.010962   0.000000
      4         19.788181   0.000000
      5         22.993432   0.000000
      6         24.701417   0.000000
 
  0.2727273E+00  0.2727273E+00  0.3784851E-17  0.4507889E-02
      1         -1.403625   1.000000
      2         15.128748   0.000000
      3         15.146950   0.000000
      4         15.146965   0.000000
      5         16.601327   0.000000
      6         19.019236   0.000000
 
  0.3636364E+00  0.2727273E+00  0.0000000E+00  0.1803156E-01
      1         -0.218415   1.000000
      2         12.231494   0.000000
      3         13.249035   0.000000
      4         14.654323   0.000000
      5         16.993191   0.000000
      6         19.727209   0.000000
 
  0.4545455E+00  0.2727273E+00  0.0000000E+00  0.1803156E-01
      1          1.426124   1.000000
      2          9.003109   1.000000
      3         11.569085   0.000000
      4         14.580119   0.000000
      5         17.105451   0.000000
      6         22.411248   0.000000
 
 -0.4545455E+00  0.2727273E+00  0.0000000E+00  0.1803156E-01
      1          3.503196   1.000000
      2          6.095051   1.000000
      3         10.317301   0.000099
      4         14.923461   0.000000
      5         17.523844   0.000000
      6         25.589993   0.000000
 
 -0.3636364E+00  0.2727273E+00  0.0000000E+00  0.1803156E-01
      1          3.504518   1.000000
      2          6.073550   1.000000
      3          9.524700   1.000000
      4         15.679103   0.000000
      5         18.372502   0.000000
      6         27.648412   0.000000
 
 -0.2727273E+00  0.2727273E+00  0.0000000E+00  0.9015778E-02
      1          1.424883   1.000000
      2          8.605134   1.000000
      3          9.546547   1.000000
      4         16.828828   0.000000
      5         19.642250   0.000000
      6         27.077267   0.000000
 
  0.3636364E+00  0.3636364E+00  0.5046468E-17  0.4507889E-02
      1          0.803051   1.000000
      2         10.925559   0.000000
      3         14.022912   0.000000
      4         14.022926   0.000000
      5         15.344284   0.000000
      6         17.724162   0.000000
 
  0.4545455E+00  0.3636364E+00  0.0000000E+00  0.1803156E-01
      1          2.281452   1.000000
      2          9.067164   1.000000
      3         11.441980   0.000000
      4         13.810479   0.000000
      5         16.048713   0.000000
      6         18.865102   0.000000
 
 -0.4545455E+00  0.3636364E+00  0.0000000E+00  0.1803156E-01
      1          4.190517   1.000000
      2          7.586214   1.000000
      3          8.543965   1.000000
      4         14.018520   0.000000
      5         16.483930   0.000000
      6         21.889880   0.000000
 
 -0.3636364E+00  0.3636364E+00  0.0000000E+00  0.9015778E-02
      1          5.663962   1.000000
      2          6.190084   1.000000
      3          7.216686   1.000000
      4         14.644247   0.000000
      5         17.219487   0.000000
      6         25.387130   0.000000
 
  0.4545455E+00  0.4545455E+00  0.6308085E-17  0.4507889E-02
      1          3.579619   1.000000
      2          7.069689   1.000000
      3         13.459164   0.000000
      4         13.459178   0.000000
      5         14.710058   0.000000
      6         17.113865   0.000000
 
 -0.4545455E+00  0.4545455E+00  0.0000000E+00  0.9015778E-02
      1          4.979861   1.000000
      2          5.833078   1.000000
      3         11.134580   0.000000
      4         13.528691   0.000000
      5         15.735688   0.000000
      6         18.578169   0.000000
 
  0.2727273E+00  0.1818182E+00  0.9090909E-01  0.1803156E-01
      1         -2.675959   1.000000
      2         14.555176   0.000000
      3         15.145780   0.000000
      4         19.679361   0.000000
      5         21.238967   0.000000
      6         22.859862   0.000000
 
  0.3636364E+00  0.1818182E+00  0.9090909E-01  0.3606311E-01
      1         -1.484009   1.000000
      2         11.165463   0.000000
      3         14.394582   0.000000
      4         18.159604   0.000000
      5         21.315172   0.000000
      6         23.967967   0.000000
 
  0.4545455E+00  0.1818182E+00  0.9090909E-01  0.3606311E-01
      1          0.171678   1.000000
      2          7.833092   1.000000
      3         14.291267   0.000000
      4         16.688224   0.000000
      5         21.155174   0.000000
      6         23.565708   0.000000
 
 -0.4545455E+00  0.1818182E+00  0.9090909E-01  0.3606311E-01
      1          2.262639   1.000000
      2          4.890196   1.000000
      3         14.563214   0.000000
      4         15.599775   0.000000
      5         21.321456   0.000000
      6         22.624625   0.000000
 
  0.3636364E+00  0.2727273E+00  0.9090909E-01  0.1803156E-01
      1         -1.087439   1.000000
      2         12.786401   0.000000
      3         13.423568   0.000000
      4         15.653622   0.000000
      5         19.524763   0.000000
      6         20.891251   0.000000
 
  0.4545455E+00  0.2727273E+00  0.9090909E-01  0.3606311E-01
      1          0.409094   1.000000
      2          9.669548   1.000000
      3         12.872056   0.000000
      4         13.974150   0.000000
      5         19.876181   0.000000
      6         22.966115   0.000000
 
 -0.4545455E+00  0.2727273E+00  0.9090909E-01  0.3606311E-01
      1          2.354616   1.000000
      2          6.620230   1.000000
      3         12.328619   0.000000
      4         13.342835   0.000000
      5         20.132219   0.000000
      6         25.085076   0.000000
 
 -0.3636364E+00  0.2727273E+00  0.9090909E-01  0.3606311E-01
      1          3.834733   1.000000
      2          4.857665   1.000000
      3         11.464005   0.000000
      4         13.906652   0.000000
      5         20.764301   0.000000
      6         24.586184   0.000000
 
 -0.2727273E+00  0.2727273E+00  0.9090909E-01  0.3606311E-01
      1          1.658029   1.000000
      2          7.577814   1.000000
      3         10.987580   0.000000
      4         14.963155   0.000000
      5         21.751232   0.000000
      6         24.140064   0.000000
 
 -0.1818182E+00  0.2727273E+00  0.9090909E-01  0.1803156E-01
      1         -0.141569   1.000000
      2         10.408929   0.000000
      3         11.287600   0.000000
      4         16.428531   0.000000
      5         22.896809   0.000000
      6         23.576649   0.000000
 
  0.4545455E+00  0.3636364E+00  0.9090909E-01  0.1803156E-01
      1          1.115190   1.000000
      2         11.129416   0.000000
      3         11.598230   0.000000
      4         12.515492   0.000000
      5         18.348415   0.000000
      6         19.776799   0.000000
 
 -0.4545455E+00  0.3636364E+00  0.9090909E-01  0.3606311E-01
      1          2.899720   1.000000
      2          8.713391   1.000000
      3          9.749351   0.999992
      4         12.186803   0.000000
      5         19.016558   0.000000
      6         22.231282   0.000000
 
 -0.3636364E+00  0.3636364E+00  0.9090909E-01  0.3606311E-01
      1          5.057690   1.000000
      2          6.034397   1.000000
      3          8.632474   1.000000
      4         12.661724   0.000000
      5         19.585616   0.000000
      6         25.483691   0.000000
 
 -0.2727273E+00  0.3636364E+00  0.9090909E-01  0.1803156E-01
      1          3.588856   1.000000
      2          7.398802   1.000000
      3          8.350108   1.000000
      4         13.598704   0.000000
      5         20.516631   0.000000
      6         27.072583   0.000000
 
 -0.4545455E+00  0.4545455E+00  0.9090909E-01  0.1803156E-01
      1          3.887024   1.000000
      2          7.362375   1.000000
      3         11.001919   0.000000
      4         11.838050   0.000000
      5         17.752528   0.000000
      6         19.222592   0.000000
 
 -0.3636364E+00  0.4545455E+00  0.9090909E-01  0.1803156E-01
      1          5.585120   1.000000
      2          6.406373   1.000000
      3          8.540193   1.000000
      4         11.872690   0.000000
      5         18.724754   0.000000
      6         21.974058   0.000000
 
 -0.4545455E+00  0.3636364E+00  0.1818182E+00  0.1803156E-01
      1          2.048976   1.000000
      2          9.206993   1.000000
      3         10.060586   0.463713
      4         12.263671   0.000000
      5         22.456426   0.000000
      6         23.030231   0.000000
 
 -0.3636364E+00  0.3636364E+00  0.1818182E+00  0.3606311E-01
      1          4.118980   1.000000
      2          6.671450   1.000000
      3          9.993137   0.805871
      4         11.081227   0.000000
      5         22.921337   0.000000
      6         24.209580   0.000000
 
 -0.3636364E+00  0.4545455E+00  0.1818182E+00  0.1803156E-01
      1          4.799716   1.000000
      2          8.163021   1.000000
      3          8.605434   1.000000
      4          9.734969   0.999997
      5         21.887649   0.000000
      6         22.730215   0.000000
 
 -0.2727273E+00  0.4545455E+00  0.1818182E+00  0.1803156E-01
      1          6.262940   1.000000
      2          6.794332   1.000000
      3          7.732185   1.000000
      4          9.934036   0.955303
      5         22.850884   0.000000
      6         25.491229   0.000000
