       N       E                     dE             d eps       ncg     rms          rms(c)
DAV:   1    -0.338772931831E+01   -0.33877E+01   -0.11280E+03   738   0.277E+02
DAV:   2    -0.485703432351E+01   -0.14693E+01   -0.14261E+01   990   0.253E+01
DAV:   3    -0.486622498359E+01   -0.91907E-02   -0.91895E-02   786   0.201E+00
DAV:   4    -0.486623118734E+01   -0.62037E-05   -0.62050E-05  1014   0.547E-02
DAV:   5    -0.486623119380E+01   -0.64541E-08   -0.54372E-08   714   0.110E-03    0.712E-01
DAV:   6    -0.485500402870E+01    0.11227E-01   -0.41179E-03   756   0.368E-01    0.424E-01
DAV:   7    -0.484875763184E+01    0.62464E-02   -0.88485E-03   696   0.536E-01    0.250E-02
DAV:   8    -0.484874365625E+01    0.13976E-04   -0.34042E-05   642   0.527E-02
   1 F= -.48487437E+01 E0= -.48481093E+01  d E =-.484874E+01
       N       E                     dE             d eps       ncg     rms          rms(c)
DAV:   1    -0.490365446509E+01   -0.54897E-01   -0.10990E+00   708   0.562E+00    0.712E-01
DAV:   2    -0.489092138515E+01    0.12733E-01   -0.54591E-03   786   0.563E-01    0.419E-01
DAV:   3    -0.488365775618E+01    0.72636E-02   -0.85182E-03   744   0.511E-01    0.159E-02
DAV:   4    -0.488364544635E+01    0.12310E-04   -0.16096E-05   534   0.399E-02
   2 F= -.48836454E+01 E0= -.48822528E+01  d E =-.349018E-01
       N       E                     dE             d eps       ncg     rms          rms(c)
DAV:   1    -0.488373032005E+01   -0.72564E-04   -0.18349E-03   732   0.227E-01    0.279E-02
DAV:   2    -0.488371090794E+01    0.19412E-04   -0.85118E-06   354   0.229E-02
   3 F= -.48837109E+01 E0= -.48823460E+01  d E =-.349673E-01
