 vasp.6.3.2 27Jun22 (build Oct 19 2022 15:35:57) complex                        
  
 executed on             LinuxIFC date 2023.09.18  23:19:06
 running    1 mpi-ranks, with    1 threads/rank
 distrk:  each k-point on    1 cores,    1 groups
 distr:  one band on NCORE=   1 cores,    1 groups


--------------------------------------------------------------------------------------------------------


 INCAR:
   SYSTEM = fcc Si
   ISTART = 0
   ICHARG = 2
   ENCUT = 240
   ISMEAR = 0
   SIGMA = 0.1
   NSW = 20
   IBRION = 2
   ISIF = 7
   EDIFF = -0.0001

 POTCAR:   PAW_PBE Si 05Jan2001                   
 POTCAR:   PAW_PBE Si 05Jan2001                   
   VRHFIN =Si: s2p2                                                                                 
   LEXCH  = PE                                                                                      
   EATOM  =   103.0669 eV,    7.5752 Ry                                                             
                                                                                                    
   TITEL  = PAW_PBE Si 05Jan2001                                                                    
   LULTRA =        F    use ultrasoft PP ?                                                          
   IUNSCR =        1    unscreen: 0-lin 1-nonlin 2-no                                               
   RPACOR =    1.500    partial core radius                                                         
   POMASS =   28.085; ZVAL   =    4.000    mass and valenz                                          
   RCORE  =    1.900    outmost cutoff radius                                                       
   RWIGS  =    2.480; RWIGS  =    1.312    wigner-seitz radius (au A)                               
   ENMAX  =  245.345; ENMIN  =  184.009 eV                                                          
   ICORE  =        2    local potential                                                             
   LCOR   =        T    correct aug charges                                                         
   LPAW   =        T    paw PP                                                                      
   EAUG   =  322.069                                                                                
   DEXC   =    -.007                                                                                
   RMAX   =    2.944    core radius for proj-oper                                                   
   RAUG   =    1.300    factor for augmentation sphere                                              
   RDEP   =    1.993    radius for radial grids                                                     
   QCUT   =   -4.246; QGAM   =    8.493    optimization parameters                                  
                                                                                                    
   Description                                                                                      
     l     E      TYP  RCUT    TYP  RCUT                                                            
     0   .000     23  1.900                                                                         
     0   .000     23  1.900                                                                         
     1   .000     23  1.900                                                                         
     1   .000     23  1.900                                                                         
     2   .000      7  1.900                                                                         
  local pseudopotential read in
  partial core-charges read in
  atomic valenz-charges read in
  non local Contribution for L=           0  read in
    real space projection operators read in
  non local Contribution for L=           0  read in
    real space projection operators read in
  non local Contribution for L=           1  read in
    real space projection operators read in
  non local Contribution for L=           1  read in
    real space projection operators read in
    PAW grid and wavefunctions read in
 
   number of l-projection  operators is LMAX  =           4
   number of lm-projection operators is LMMAX =           8
 
 PAW_PBE Si 05Jan2001                   :
 energy of atom  1       EATOM= -103.0669
 kinetic energy error for atom=    0.0061 (will be added to EATOM!!)
 
 
 POSCAR: fcc:
  positions in cartesian coordinates
  No initial velocities read in
 exchange correlation table for  LEXCH =        8
   RHO(1)=    0.500       N(1)  =     2000
   RHO(2)=  100.500       N(2)  =     4000
 


--------------------------------------------------------------------------------------------------------


 ion  position               nearest neighbor table
   1  0.000  0.000  0.000-
 
  LATTYP: Found a face centered cubic cell.
 ALAT       =     4.0000000000
  
  Lattice vectors:
  
 A1 = (   2.0000000000,   2.0000000000,   0.0000000000)
 A2 = (   0.0000000000,   2.0000000000,   2.0000000000)
 A3 = (   2.0000000000,   0.0000000000,   2.0000000000)


Analysis of symmetry for initial positions (statically):
=====================================================================
 Subroutine PRICEL returns:
 Original cell was already a primitive cell.
 

 Routine SETGRP: Setting up the symmetry group for a 
 face centered cubic supercell.


 Subroutine GETGRP returns: Found 48 space group operations
 (whereof 48 operations were pure point group operations)
 out of a pool of 48 trial point group operations.


The static configuration has the point symmetry O_h .


Analysis of symmetry for dynamics (positions and initial velocities):
=====================================================================
 Subroutine PRICEL returns:
 Original cell was already a primitive cell.
 

 Routine SETGRP: Setting up the symmetry group for a 
 face centered cubic supercell.


 Subroutine GETGRP returns: Found 48 space group operations
 (whereof 48 operations were pure point group operations)
 out of a pool of 48 trial point group operations.


The dynamic configuration has the point symmetry O_h .


 Subroutine INISYM returns: Found 48 space group operations
 (whereof 48 operations are pure point group operations),
 and found     1 'primitive' translations


----------------------------------------------------------------------------------------

                                     Primitive cell                                     

  volume of cell :      16.0000

  direct lattice vectors                    reciprocal lattice vectors
     2.000000000  2.000000000  0.000000000     0.250000000  0.250000000 -0.250000000
     0.000000000  2.000000000  2.000000000    -0.250000000  0.250000000  0.250000000
     2.000000000  0.000000000  2.000000000     0.250000000 -0.250000000  0.250000000

  length of vectors
     2.828427125  2.828427125  2.828427125     0.433012702  0.433012702  0.433012702

  position of ions in fractional coordinates (direct lattice)
     0.000000000  0.000000000  0.000000000

  ion indices of the primitive-cell ions
   primitive index   ion index
                 1           1

----------------------------------------------------------------------------------------

 
 
 KPOINTS: K-Points                                

Automatic generation of k-mesh.
 Grid dimensions read from file:
 generate k-points for:   11   11   11

 Generating k-lattice:

  Cartesian coordinates                     Fractional coordinates (reciprocal lattice)
     0.022727273  0.022727273 -0.022727273     0.090909091  0.000000000  0.000000000
    -0.022727273  0.022727273  0.022727273     0.000000000  0.090909091  0.000000000
     0.022727273 -0.022727273  0.022727273     0.000000000  0.000000000  0.090909091

  Length of vectors
     0.039364791  0.039364791  0.039364791

  Shift w.r.t. Gamma in fractional coordinates (k-lattice)
     0.000000000  0.000000000  0.000000000

 
 Subroutine IBZKPT returns following result:
 ===========================================
 
 Found     56 irreducible k-points:
 
 Following reciprocal coordinates:
            Coordinates               Weight
  0.000000  0.000000  0.000000      1.000000
  0.090909  0.000000  0.000000      8.000000
  0.181818  0.000000  0.000000      8.000000
  0.272727  0.000000  0.000000      8.000000
  0.363636  0.000000  0.000000      8.000000
  0.454545  0.000000  0.000000      8.000000
  0.090909  0.090909  0.000000      6.000000
  0.181818  0.090909  0.000000     24.000000
  0.272727  0.090909  0.000000     24.000000
  0.363636  0.090909  0.000000     24.000000
  0.454545  0.090909  0.000000     24.000000
 -0.454545  0.090909  0.000000     24.000000
 -0.363636  0.090909  0.000000     24.000000
 -0.272727  0.090909  0.000000     24.000000
 -0.181818  0.090909  0.000000     24.000000
 -0.090909  0.090909  0.000000     12.000000
  0.181818  0.181818  0.000000      6.000000
  0.272727  0.181818  0.000000     24.000000
  0.363636  0.181818  0.000000     24.000000
  0.454545  0.181818  0.000000     24.000000
 -0.454545  0.181818  0.000000     24.000000
 -0.363636  0.181818  0.000000     24.000000
 -0.272727  0.181818  0.000000     24.000000
 -0.181818  0.181818  0.000000     12.000000
  0.272727  0.272727  0.000000      6.000000
  0.363636  0.272727  0.000000     24.000000
  0.454545  0.272727  0.000000     24.000000
 -0.454545  0.272727  0.000000     24.000000
 -0.363636  0.272727  0.000000     24.000000
 -0.272727  0.272727  0.000000     12.000000
  0.363636  0.363636  0.000000      6.000000
  0.454545  0.363636  0.000000     24.000000
 -0.454545  0.363636  0.000000     24.000000
 -0.363636  0.363636  0.000000     12.000000
  0.454545  0.454545  0.000000      6.000000
 -0.454545  0.454545  0.000000     12.000000
  0.272727  0.181818  0.090909     24.000000
  0.363636  0.181818  0.090909     48.000000
  0.454545  0.181818  0.090909     48.000000
 -0.454545  0.181818  0.090909     48.000000
  0.363636  0.272727  0.090909     24.000000
  0.454545  0.272727  0.090909     48.000000
 -0.454545  0.272727  0.090909     48.000000
 -0.363636  0.272727  0.090909     48.000000
 -0.272727  0.272727  0.090909     48.000000
 -0.181818  0.272727  0.090909     24.000000
  0.454545  0.363636  0.090909     24.000000
 -0.454545  0.363636  0.090909     48.000000
 -0.363636  0.363636  0.090909     48.000000
 -0.272727  0.363636  0.090909     24.000000
 -0.454545  0.454545  0.090909     24.000000
 -0.363636  0.454545  0.090909     24.000000
 -0.454545  0.363636  0.181818     24.000000
 -0.363636  0.363636  0.181818     48.000000
 -0.363636  0.454545  0.181818     24.000000
 -0.272727  0.454545  0.181818     24.000000
 
 Following cartesian coordinates:
            Coordinates               Weight
  0.000000  0.000000  0.000000      1.000000
  0.090909  0.090909 -0.090909      8.000000
  0.181818  0.181818 -0.181818      8.000000
  0.272727  0.272727 -0.272727      8.000000
  0.363636  0.363636 -0.363636      8.000000
  0.454545  0.454545 -0.454545      8.000000
  0.000000  0.181818  0.000000      6.000000
  0.090909  0.272727 -0.090909     24.000000
  0.181818  0.363636 -0.181818     24.000000
  0.272727  0.454545 -0.272727     24.000000
  0.363636  0.545455 -0.363636     24.000000
 -0.545455 -0.363636  0.545455     24.000000
 -0.454545 -0.272727  0.454545     24.000000
 -0.363636 -0.181818  0.363636     24.000000
 -0.272727 -0.090909  0.272727     24.000000
 -0.181818  0.000000  0.181818     12.000000
  0.000000  0.363636  0.000000      6.000000
  0.090909  0.454545 -0.090909     24.000000
  0.181818  0.545455 -0.181818     24.000000
  0.272727  0.636364 -0.272727     24.000000
 -0.636364 -0.272727  0.636364     24.000000
 -0.545455 -0.181818  0.545455     24.000000
 -0.454545 -0.090909  0.454545     24.000000
 -0.363636  0.000000  0.363636     12.000000
  0.000000  0.545455  0.000000      6.000000
  0.090909  0.636364 -0.090909     24.000000
  0.181818  0.727273 -0.181818     24.000000
 -0.727273 -0.181818  0.727273     24.000000
 -0.636364 -0.090909  0.636364     24.000000
 -0.545455  0.000000  0.545455     12.000000
  0.000000  0.727273  0.000000      6.000000
  0.090909  0.818182 -0.090909     24.000000
 -0.818182 -0.090909  0.818182     24.000000
 -0.727273  0.000000  0.727273     12.000000
  0.000000  0.909091  0.000000      6.000000
 -0.909091  0.000000  0.909091     12.000000
  0.181818  0.363636  0.000000     24.000000
  0.272727  0.454545 -0.090909     48.000000
  0.363636  0.545455 -0.181818     48.000000
 -0.545455 -0.363636  0.727273     48.000000
  0.181818  0.545455  0.000000     24.000000
  0.272727  0.636364 -0.090909     48.000000
 -0.636364 -0.272727  0.818182     48.000000
 -0.545455 -0.181818  0.727273     48.000000
 -0.454545 -0.090909  0.636364     48.000000
 -0.363636  0.000000  0.545455     24.000000
  0.181818  0.727273  0.000000     24.000000
 -0.727273 -0.181818  0.909091     48.000000
 -0.636364 -0.090909  0.818182     48.000000
 -0.545455  0.000000  0.727273     24.000000
 -0.818182 -0.090909  1.000000     24.000000
 -0.727273 -0.000000  0.909091     24.000000
 -0.636364 -0.272727  1.000000     24.000000
 -0.545455 -0.181818  0.909091     48.000000
 -0.636364 -0.090909  1.000000     24.000000
 -0.545455  0.000000  0.909091     24.000000
 


--------------------------------------------------------------------------------------------------------




 Dimension of arrays:
   k-points           NKPTS =     56   k-points in BZ     NKDIM =     56   number of bands    NBANDS=      6
   number of dos      NEDOS =    301   number of ions     NIONS =      1
   non local maximal  LDIM  =      4   non local SUM 2l+1 LMDIM =      8
   total plane-waves  NPLWV =   1728
   max r-space proj   IRMAX =      1   max aug-charges    IRDMAX=   3810
   dimension x,y,z NGX =    12 NGY =   12 NGZ =   12
   dimension x,y,z NGXF=    24 NGYF=   24 NGZF=   24
   support grid    NGXF=    24 NGYF=   24 NGZF=   24
   ions per type =               1
   NGX,Y,Z   is equivalent  to a cutoff of   7.05,  7.05,  7.05 a.u.
   NGXF,Y,Z  is equivalent  to a cutoff of  14.11, 14.11, 14.11 a.u.

 SYSTEM =  fcc Si                                  
 POSCAR =  fcc:                                    

 Startparameter for this run:
   NWRITE =      2    write-flag & timer
   PREC   = normal    normal or accurate (medium, high low for compatibility)
   ISTART =      0    job   : 0-new  1-cont  2-samecut
   ICHARG =      2    charge: 1-file 2-atom 10-const
   ISPIN  =      1    spin polarized calculation?
   LNONCOLLINEAR =      F non collinear calculations
   LSORBIT =      F    spin-orbit coupling
   INIWAV =      1    electr: 0-lowe 1-rand  2-diag
   LASPH  =      F    aspherical Exc in radial PAW
 Electronic Relaxation 1
   ENCUT  =  240.0 eV  17.64 Ry    4.20 a.u.   3.57  3.57  3.57*2*pi/ulx,y,z
   ENINI  =  240.0     initial cutoff
   ENAUG  =  322.1 eV  augmentation charge cutoff
   NELM   =     60;   NELMIN=  2; NELMDL= -5     # of ELM steps 
   EDIFF  = 0.1E-03   stopping-criterion for ELM
   LREAL  =      F    real-space projection
   NLSPLINE    = F    spline interpolate recip. space projectors
   LCOMPAT=      F    compatible to vasp.4.4
   GGA_COMPAT  = T    GGA compatible to vasp.4.4-vasp.4.6
   LMAXPAW     = -100 max onsite density
   LMAXMIX     =    2 max onsite mixed and CHGCAR
   VOSKOWN=      0    Vosko Wilk Nusair interpolation
   ROPT   =    0.00000
 Ionic relaxation
   EDIFFG = 0.1E-02   stopping-criterion for IOM
   NSW    =     20    number of steps for IOM
   NBLOCK =      1;   KBLOCK =     20    inner block; outer block 
   IBRION =      2    ionic relax: 0-MD 1-quasi-New 2-CG
   NFREE  =      1    steps in history (QN), initial steepest desc. (CG)
   ISIF   =      7    stress and relaxation
   IWAVPR =     11    prediction:  0-non 1-charg 2-wave 3-comb
   ISYM   =      2    0-nonsym 1-usesym 2-fastsym
   LCORR  =      T    Harris-Foulkes like correction to forces

   POTIM  = 0.5000    time-step for ionic-motion
   TEIN   =    0.0    initial temperature
   TEBEG  =    0.0;   TEEND  =   0.0 temperature during run
   SMASS  =  -3.00    Nose mass-parameter (am)
   estimated Nose-frequenzy (Omega)   =  0.10E-29 period in steps = 0.13E+47 mass=  -0.183E-27a.u.
   SCALEE = 1.0000    scale energy and forces
   NPACO  =    256;   APACO  = 10.0  distance and # of slots for P.C.
   PSTRESS=    0.0 pullay stress

  Mass of Ions in am
   POMASS =  28.09
  Ionic Valenz
   ZVAL   =   4.00
  Atomic Wigner-Seitz radii
   RWIGS  =  -1.00
  virtual crystal weights 
   VCA    =   1.00
   NELECT =       4.0000    total number of electrons
   NUPDOWN=      -1.0000    fix difference up-down

 DOS related values:
   EMIN   =  10.00;   EMAX   =-10.00  energy-range for DOS
   EFERMI =   0.00
   ISMEAR =     0;   SIGMA  =   0.10  broadening in eV -4-tet -1-fermi 0-gaus

 Electronic relaxation 2 (details)
   IALGO  =     38    algorithm
   LDIAG  =      T    sub-space diagonalisation (order eigenvalues)
   LSUBROT=      F    optimize rotation matrix (better conditioning)
   TURBO    =      0    0=normal 1=particle mesh
   IRESTART =      0    0=no restart 2=restart with 2 vectors
   NREBOOT  =      0    no. of reboots
   NMIN     =      0    reboot dimension
   EREF     =   0.00    reference energy to select bands
   IMIX   =      4    mixing-type and parameters
     AMIX     =   0.40;   BMIX     =  1.00
     AMIX_MAG =   1.60;   BMIX_MAG =  1.00
     AMIN     =   0.10
     WC   =   100.;   INIMIX=   1;  MIXPRE=   1;  MAXMIX= -45

 Intra band minimization:
   WEIMIN = 0.0010     energy-eigenvalue tresh-hold
   EBREAK =  0.42E-05  absolut break condition
   DEPER  =   0.30     relativ break condition  

   TIME   =   0.40     timestep for ELM

  volume/ion in A,a.u.               =      16.00       107.97
  Fermi-wavevector in a.u.,A,eV,Ry     =   1.031307  1.948889 14.471090  1.063595
  Thomas-Fermi vector in A             =   2.165449
 
 Write flags
   LWAVE        =      T    write WAVECAR
   LDOWNSAMPLE  =      F    k-point downsampling of WAVECAR
   LCHARG       =      T    write CHGCAR
   LVTOT        =      F    write LOCPOT, total local potential
   LVHAR        =      F    write LOCPOT, Hartree potential only
   LELF         =      F    write electronic localiz. function (ELF)
   LORBIT       =      0    0 simple, 1 ext, 2 COOP (PROOUT), +10 PAW based schemes


 Dipole corrections
   LMONO  =      F    monopole corrections only (constant potential shift)
   LDIPOL =      F    correct potential (dipole corrections)
   IDIPOL =      0    1-x, 2-y, 3-z, 4-all directions 
   EPSILON=  1.0000000 bulk dielectric constant

 Exchange correlation treatment:
   GGA     =    --    GGA type
   LEXCH   =     8    internal setting for exchange type
   LIBXC   =     F    Libxc                    
   VOSKOWN =     0    Vosko Wilk Nusair interpolation
   LHFCALC =     F    Hartree Fock is set to
   LHFONE  =     F    Hartree Fock one center treatment
   AEXX    =    0.0000 exact exchange contribution

 Linear response parameters
   LEPSILON=     F    determine dielectric tensor
   LRPA    =     F    only Hartree local field effects (RPA)
   LNABLA  =     F    use nabla operator in PAW spheres
   LVEL    =     F    velocity operator in full k-point grid
   CSHIFT  =0.1000    complex shift for real part using Kramers Kronig
   OMEGAMAX=  -1.0    maximum frequency
   DEG_THRESHOLD= 0.2000000E-02 threshold for treating states as degnerate
   RTIME   =   -0.100 relaxation time in fs
  (WPLASMAI=    0.000 imaginary part of plasma frequency in eV, 0.658/RTIME)
   DFIELD  = 0.0000000 0.0000000 0.0000000 field for delta impulse in time
 
  Optional k-point grid parameters
   LKPOINTS_OPT  =     F    use optional k-point grid
   KPOINTS_OPT_MODE=     1    mode for optional k-point grid
 
 Orbital magnetization related:
   ORBITALMAG=     F  switch on orbital magnetization
   LCHIMAG   =     F  perturbation theory with respect to B field
   DQ        =  0.001000  dq finite difference perturbation B field
   LLRAUG    =     F  two centre corrections for induced B field



--------------------------------------------------------------------------------------------------------


 conjugate gradient relaxation of ions
 charge density and potential will be updated during run
 non-spin polarized calculation
 Variant of blocked Davidson
 Davidson routine will perform the subspace rotation
 perform sub-space diagonalisation
    after iterative eigenvector-optimisation
 modified Broyden-mixing scheme, WC =      100.0
 initial mixing is a Kerker type mixing with AMIX =  0.4000 and BMIX =      1.0000
 Hartree-type preconditioning will be used
 using additional bands            4
 reciprocal scheme for non local part
 use partial core corrections
 calculate Harris-corrections to forces 
   (improved forces if not selfconsistent)
 use gradient corrections 
 use of overlap-Matrix (Vanderbilt PP)
 Gauss-broadening in eV      SIGMA  =   0.10


--------------------------------------------------------------------------------------------------------


  energy-cutoff  :      240.00
  volume of cell :       16.00
      direct lattice vectors                 reciprocal lattice vectors
     2.000000000  2.000000000  0.000000000     0.250000000  0.250000000 -0.250000000
     0.000000000  2.000000000  2.000000000    -0.250000000  0.250000000  0.250000000
     2.000000000  0.000000000  2.000000000     0.250000000 -0.250000000  0.250000000

  length of vectors
     2.828427125  2.828427125  2.828427125     0.433012702  0.433012702  0.433012702


 
 k-points in units of 2pi/SCALE and weight: K-Points                                
   0.00000000  0.00000000  0.00000000       0.001
   0.09090909  0.09090909 -0.09090909       0.006
   0.18181818  0.18181818 -0.18181818       0.006
   0.27272727  0.27272727 -0.27272727       0.006
   0.36363636  0.36363636 -0.36363636       0.006
   0.45454545  0.45454545 -0.45454545       0.006
   0.00000000  0.18181818  0.00000000       0.005
   0.09090909  0.27272727 -0.09090909       0.018
   0.18181818  0.36363636 -0.18181818       0.018
   0.27272727  0.45454545 -0.27272727       0.018
   0.36363636  0.54545455 -0.36363636       0.018
  -0.54545455 -0.36363636  0.54545455       0.018
  -0.45454545 -0.27272727  0.45454545       0.018
  -0.36363636 -0.18181818  0.36363636       0.018
  -0.27272727 -0.09090909  0.27272727       0.018
  -0.18181818  0.00000000  0.18181818       0.009
   0.00000000  0.36363636  0.00000000       0.005
   0.09090909  0.45454545 -0.09090909       0.018
   0.18181818  0.54545455 -0.18181818       0.018
   0.27272727  0.63636364 -0.27272727       0.018
  -0.63636364 -0.27272727  0.63636364       0.018
  -0.54545455 -0.18181818  0.54545455       0.018
  -0.45454545 -0.09090909  0.45454545       0.018
  -0.36363636  0.00000000  0.36363636       0.009
   0.00000000  0.54545455  0.00000000       0.005
   0.09090909  0.63636364 -0.09090909       0.018
   0.18181818  0.72727273 -0.18181818       0.018
  -0.72727273 -0.18181818  0.72727273       0.018
  -0.63636364 -0.09090909  0.63636364       0.018
  -0.54545455  0.00000000  0.54545455       0.009
   0.00000000  0.72727273  0.00000000       0.005
   0.09090909  0.81818182 -0.09090909       0.018
  -0.81818182 -0.09090909  0.81818182       0.018
  -0.72727273  0.00000000  0.72727273       0.009
   0.00000000  0.90909091  0.00000000       0.005
  -0.90909091  0.00000000  0.90909091       0.009
   0.18181818  0.36363636  0.00000000       0.018
   0.27272727  0.45454545 -0.09090909       0.036
   0.36363636  0.54545455 -0.18181818       0.036
  -0.54545455 -0.36363636  0.72727273       0.036
   0.18181818  0.54545455  0.00000000       0.018
   0.27272727  0.63636364 -0.09090909       0.036
  -0.63636364 -0.27272727  0.81818182       0.036
  -0.54545455 -0.18181818  0.72727273       0.036
  -0.45454545 -0.09090909  0.63636364       0.036
  -0.36363636  0.00000000  0.54545455       0.018
   0.18181818  0.72727273  0.00000000       0.018
  -0.72727273 -0.18181818  0.90909091       0.036
  -0.63636364 -0.09090909  0.81818182       0.036
  -0.54545455  0.00000000  0.72727273       0.018
  -0.81818182 -0.09090909  1.00000000       0.018
  -0.72727273 -0.00000000  0.90909091       0.018
  -0.63636364 -0.27272727  1.00000000       0.018
  -0.54545455 -0.18181818  0.90909091       0.036
  -0.63636364 -0.09090909  1.00000000       0.018
  -0.54545455  0.00000000  0.90909091       0.018
 
 k-points in reciprocal lattice and weights: K-Points                                
   0.00000000  0.00000000  0.00000000       0.001
   0.09090909  0.00000000  0.00000000       0.006
   0.18181818  0.00000000  0.00000000       0.006
   0.27272727  0.00000000  0.00000000       0.006
   0.36363636  0.00000000  0.00000000       0.006
   0.45454545  0.00000000  0.00000000       0.006
   0.09090909  0.09090909  0.00000000       0.005
   0.18181818  0.09090909  0.00000000       0.018
   0.27272727  0.09090909  0.00000000       0.018
   0.36363636  0.09090909  0.00000000       0.018
   0.45454545  0.09090909  0.00000000       0.018
  -0.45454545  0.09090909  0.00000000       0.018
  -0.36363636  0.09090909  0.00000000       0.018
  -0.27272727  0.09090909  0.00000000       0.018
  -0.18181818  0.09090909  0.00000000       0.018
  -0.09090909  0.09090909  0.00000000       0.009
   0.18181818  0.18181818  0.00000000       0.005
   0.27272727  0.18181818  0.00000000       0.018
   0.36363636  0.18181818  0.00000000       0.018
   0.45454545  0.18181818  0.00000000       0.018
  -0.45454545  0.18181818  0.00000000       0.018
  -0.36363636  0.18181818  0.00000000       0.018
  -0.27272727  0.18181818  0.00000000       0.018
  -0.18181818  0.18181818  0.00000000       0.009
   0.27272727  0.27272727  0.00000000       0.005
   0.36363636  0.27272727  0.00000000       0.018
   0.45454545  0.27272727  0.00000000       0.018
  -0.45454545  0.27272727  0.00000000       0.018
  -0.36363636  0.27272727  0.00000000       0.018
  -0.27272727  0.27272727  0.00000000       0.009
   0.36363636  0.36363636  0.00000000       0.005
   0.45454545  0.36363636  0.00000000       0.018
  -0.45454545  0.36363636  0.00000000       0.018
  -0.36363636  0.36363636  0.00000000       0.009
   0.45454545  0.45454545  0.00000000       0.005
  -0.45454545  0.45454545  0.00000000       0.009
   0.27272727  0.18181818  0.09090909       0.018
   0.36363636  0.18181818  0.09090909       0.036
   0.45454545  0.18181818  0.09090909       0.036
  -0.45454545  0.18181818  0.09090909       0.036
   0.36363636  0.27272727  0.09090909       0.018
   0.45454545  0.27272727  0.09090909       0.036
  -0.45454545  0.27272727  0.09090909       0.036
  -0.36363636  0.27272727  0.09090909       0.036
  -0.27272727  0.27272727  0.09090909       0.036
  -0.18181818  0.27272727  0.09090909       0.018
   0.45454545  0.36363636  0.09090909       0.018
  -0.45454545  0.36363636  0.09090909       0.036
  -0.36363636  0.36363636  0.09090909       0.036
  -0.27272727  0.36363636  0.09090909       0.018
  -0.45454545  0.45454545  0.09090909       0.018
  -0.36363636  0.45454545  0.09090909       0.018
  -0.45454545  0.36363636  0.18181818       0.018
  -0.36363636  0.36363636  0.18181818       0.036
  -0.36363636  0.45454545  0.18181818       0.018
  -0.27272727  0.45454545  0.18181818       0.018
 
 position of ions in fractional coordinates (direct lattice) 
   0.00000000  0.00000000  0.00000000
 
 position of ions in cartesian coordinates  (Angst):
   0.00000000  0.00000000  0.00000000
 


--------------------------------------------------------------------------------------------------------


 k-point   1 :   0.0000 0.0000 0.0000  plane waves:     137
 k-point   2 :   0.0909 0.0000 0.0000  plane waves:     138
 k-point   3 :   0.1818 0.0000 0.0000  plane waves:     138
 k-point   4 :   0.2727 0.0000 0.0000  plane waves:     138
 k-point   5 :   0.3636 0.0000 0.0000  plane waves:     144
 k-point   6 :   0.4545 0.0000 0.0000  plane waves:     138
 k-point   7 :   0.0909 0.0909 0.0000  plane waves:     141
 k-point   8 :   0.1818 0.0909 0.0000  plane waves:     138
 k-point   9 :   0.2727 0.0909 0.0000  plane waves:     140
 k-point  10 :   0.3636 0.0909 0.0000  plane waves:     140
 k-point  11 :   0.4545 0.0909 0.0000  plane waves:     136
 k-point  12 :  -0.4545 0.0909 0.0000  plane waves:     133
 k-point  13 :  -0.3636 0.0909 0.0000  plane waves:     139
 k-point  14 :  -0.2727 0.0909 0.0000  plane waves:     140
 k-point  15 :  -0.1818 0.0909 0.0000  plane waves:     140
 k-point  16 :  -0.0909 0.0909 0.0000  plane waves:     139
 k-point  17 :   0.1818 0.1818 0.0000  plane waves:     133
 k-point  18 :   0.2727 0.1818 0.0000  plane waves:     136
 k-point  19 :   0.3636 0.1818 0.0000  plane waves:     138
 k-point  20 :   0.4545 0.1818 0.0000  plane waves:     136
 k-point  21 :  -0.4545 0.1818 0.0000  plane waves:     131
 k-point  22 :  -0.3636 0.1818 0.0000  plane waves:     131
 k-point  23 :  -0.2727 0.1818 0.0000  plane waves:     137
 k-point  24 :  -0.1818 0.1818 0.0000  plane waves:     137
 k-point  25 :   0.2727 0.2727 0.0000  plane waves:     133
 k-point  26 :   0.3636 0.2727 0.0000  plane waves:     135
 k-point  27 :   0.4545 0.2727 0.0000  plane waves:     137
 k-point  28 :  -0.4545 0.2727 0.0000  plane waves:     132
 k-point  29 :  -0.3636 0.2727 0.0000  plane waves:     131
 k-point  30 :  -0.2727 0.2727 0.0000  plane waves:     136
 k-point  31 :   0.3636 0.3636 0.0000  plane waves:     129
 k-point  32 :   0.4545 0.3636 0.0000  plane waves:     135
 k-point  33 :  -0.4545 0.3636 0.0000  plane waves:     131
 k-point  34 :  -0.3636 0.3636 0.0000  plane waves:     134
 k-point  35 :   0.4545 0.4545 0.0000  plane waves:     129
 k-point  36 :  -0.4545 0.4545 0.0000  plane waves:     130
 k-point  37 :   0.2727 0.1818 0.0909  plane waves:     137
 k-point  38 :   0.3636 0.1818 0.0909  plane waves:     138
 k-point  39 :   0.4545 0.1818 0.0909  plane waves:     138
 k-point  40 :  -0.4545 0.1818 0.0909  plane waves:     136
 k-point  41 :   0.3636 0.2727 0.0909  plane waves:     137
 k-point  42 :   0.4545 0.2727 0.0909  plane waves:     137
 k-point  43 :  -0.4545 0.2727 0.0909  plane waves:     135
 k-point  44 :  -0.3636 0.2727 0.0909  plane waves:     129
 k-point  45 :  -0.2727 0.2727 0.0909  plane waves:     134
 k-point  46 :  -0.1818 0.2727 0.0909  plane waves:     139
 k-point  47 :   0.4545 0.3636 0.0909  plane waves:     132
 k-point  48 :  -0.4545 0.3636 0.0909  plane waves:     131
 k-point  49 :  -0.3636 0.3636 0.0909  plane waves:     132
 k-point  50 :  -0.2727 0.3636 0.0909  plane waves:     134
 k-point  51 :  -0.4545 0.4545 0.0909  plane waves:     127
 k-point  52 :  -0.3636 0.4545 0.0909  plane waves:     131
 k-point  53 :  -0.4545 0.3636 0.1818  plane waves:     136
 k-point  54 :  -0.3636 0.3636 0.1818  plane waves:     133
 k-point  55 :  -0.3636 0.4545 0.1818  plane waves:     131
 k-point  56 :  -0.2727 0.4545 0.1818  plane waves:     135

 maximum and minimum number of plane-waves per node :       144      127

 maximum number of plane-waves:       144
 maximum index in each direction: 
   IXMAX=    4   IYMAX=    3   IZMAX=    3
   IXMIN=   -4   IYMIN=   -3   IZMIN=   -3


 serial   3D FFT for wavefunctions
 parallel 3D FFT for charge:
    minimum data exchange during FFTs selected (reduces bandwidth)


 total amount of memory used by VASP MPI-rank0    32613. kBytes
=======================================================================

   base      :      30000. kBytes
   nonl-proj :        518. kBytes
   fftplans  :        504. kBytes
   grid      :        771. kBytes
   one-center:          3. kBytes
   wavefun   :        817. kBytes
 
     INWAV:  cpu time      0.0000: real time      0.0000
 Broyden mixing: mesh for mixing (old mesh)
   NGX =  7   NGY =  7   NGZ =  7
  (NGX  = 24   NGY  = 24   NGZ  = 24)
  gives a total of    343 points

 initial charge density was supplied:
 charge density of overlapping atoms calculated
 number of electron       4.0000000 magnetization 
 keeping initial charge density in first step


--------------------------------------------------------------------------------------------------------


 Maximum index for augmentation-charges         3511 (set IRDMAX)


--------------------------------------------------------------------------------------------------------


 First call to EWALD:  gamma=   0.703
 Maximum number of real-space cells 3x 3x 3
 Maximum number of reciprocal cells 3x 3x 3

    FEWALD:  cpu time      0.0013: real time      0.0014


--------------------------------------- Iteration      1(   1)  ---------------------------------------


    POTLOK:  cpu time      0.0050: real time      0.0069
    SETDIJ:  cpu time      0.0014: real time      0.0014
     EDDAV:  cpu time      0.0436: real time      0.0437
       DOS:  cpu time      0.0009: real time      0.0009
    --------------------------------------------
      LOOP:  cpu time      0.0510: real time      0.0529

 eigenvalue-minimisations  :   738
 total energy-change (2. order) :-0.3387729E+01  (-0.1127961E+03)
 number of electron       4.0000000 magnetization 
 augmentation part        4.0000000 magnetization 

 Free energy of the ion-electron system (eV)
  ---------------------------------------------------
  alpha Z        PSCENC =         2.10394240
  Ewald energy   TEWEN  =      -132.04207609
  -Hartree energ DENC   =        -0.84728143
  -exchange      EXHF   =         0.00000000
  -V(xc)+E(xc)   XCENC  =        -9.06445568
  PAW double counting   =        32.97760406      -15.38426339
  entropy T*S    EENTRO =        -0.00203469
  eigenvalues    EBANDS =        15.81005893
  atomic energy  EATOM  =       103.06077658
  Solvation  Ediel_sol  =         0.00000000
  ---------------------------------------------------
  free energy    TOTEN  =        -3.38772932 eV

  energy without entropy =       -3.38569463  energy(sigma->0) =       -3.38671197


--------------------------------------------------------------------------------------------------------




--------------------------------------- Iteration      1(   2)  ---------------------------------------


     EDDAV:  cpu time      0.0540: real time      0.0543
       DOS:  cpu time      0.0009: real time      0.0009
    --------------------------------------------
      LOOP:  cpu time      0.0548: real time      0.0552

 eigenvalue-minimisations  :   990
 total energy-change (2. order) :-0.1469305E+01  (-0.1426067E+01)
 number of electron       4.0000000 magnetization 
 augmentation part        4.0000000 magnetization 

 Free energy of the ion-electron system (eV)
  ---------------------------------------------------
  alpha Z        PSCENC =         2.10394240
  Ewald energy   TEWEN  =      -132.04207609
  -Hartree energ DENC   =        -0.84728143
  -exchange      EXHF   =         0.00000000
  -V(xc)+E(xc)   XCENC  =        -9.06445568
  PAW double counting   =        32.97760406      -15.38426339
  entropy T*S    EENTRO =        -0.00153360
  eigenvalues    EBANDS =        14.34025283
  atomic energy  EATOM  =       103.06077658
  Solvation  Ediel_sol  =         0.00000000
  ---------------------------------------------------
  free energy    TOTEN  =        -4.85703432 eV

  energy without entropy =       -4.85550073  energy(sigma->0) =       -4.85626752


--------------------------------------------------------------------------------------------------------




--------------------------------------- Iteration      1(   3)  ---------------------------------------


     EDDAV:  cpu time      0.0408: real time      0.0411
       DOS:  cpu time      0.0009: real time      0.0009
    --------------------------------------------
      LOOP:  cpu time      0.0418: real time      0.0420

 eigenvalue-minimisations  :   786
 total energy-change (2. order) :-0.9190660E-02  (-0.9189525E-02)
 number of electron       4.0000000 magnetization 
 augmentation part        4.0000000 magnetization 

 Free energy of the ion-electron system (eV)
  ---------------------------------------------------
  alpha Z        PSCENC =         2.10394240
  Ewald energy   TEWEN  =      -132.04207609
  -Hartree energ DENC   =        -0.84728143
  -exchange      EXHF   =         0.00000000
  -V(xc)+E(xc)   XCENC  =        -9.06445568
  PAW double counting   =        32.97760406      -15.38426339
  entropy T*S    EENTRO =        -0.00155446
  eigenvalues    EBANDS =        14.33108303
  atomic energy  EATOM  =       103.06077658
  Solvation  Ediel_sol  =         0.00000000
  ---------------------------------------------------
  free energy    TOTEN  =        -4.86622498 eV

  energy without entropy =       -4.86467053  energy(sigma->0) =       -4.86544775


--------------------------------------------------------------------------------------------------------




--------------------------------------- Iteration      1(   4)  ---------------------------------------


     EDDAV:  cpu time      0.0536: real time      0.0538
       DOS:  cpu time      0.0009: real time      0.0009
    --------------------------------------------
      LOOP:  cpu time      0.0544: real time      0.0547

 eigenvalue-minimisations  :  1014
 total energy-change (2. order) :-0.6203749E-05  (-0.6204964E-05)
 number of electron       4.0000000 magnetization 
 augmentation part        4.0000000 magnetization 

 Free energy of the ion-electron system (eV)
  ---------------------------------------------------
  alpha Z        PSCENC =         2.10394240
  Ewald energy   TEWEN  =      -132.04207609
  -Hartree energ DENC   =        -0.84728143
  -exchange      EXHF   =         0.00000000
  -V(xc)+E(xc)   XCENC  =        -9.06445568
  PAW double counting   =        32.97760406      -15.38426339
  entropy T*S    EENTRO =        -0.00155443
  eigenvalues    EBANDS =        14.33107681
  atomic energy  EATOM  =       103.06077658
  Solvation  Ediel_sol  =         0.00000000
  ---------------------------------------------------
  free energy    TOTEN  =        -4.86623119 eV

  energy without entropy =       -4.86467675  energy(sigma->0) =       -4.86545397


--------------------------------------------------------------------------------------------------------




--------------------------------------- Iteration      1(   5)  ---------------------------------------


     EDDAV:  cpu time      0.0368: real time      0.0370
       DOS:  cpu time      0.0009: real time      0.0009
    CHARGE:  cpu time      0.0024: real time      0.0025
    MIXING:  cpu time      0.0005: real time      0.0005
    --------------------------------------------
      LOOP:  cpu time      0.0406: real time      0.0408

 eigenvalue-minimisations  :   714
 total energy-change (2. order) :-0.6454059E-08  (-0.5437219E-08)
 number of electron       3.9999997 magnetization 
 augmentation part       -0.2456073 magnetization 

 Broyden mixing:
  rms(total) = 0.71186E-01    rms(broyden)= 0.71168E-01
  rms(prec ) = 0.28416E+00
  weight for this iteration     100.00

 Free energy of the ion-electron system (eV)
  ---------------------------------------------------
  alpha Z        PSCENC =         2.10394240
  Ewald energy   TEWEN  =      -132.04207609
  -Hartree energ DENC   =        -0.84728143
  -exchange      EXHF   =         0.00000000
  -V(xc)+E(xc)   XCENC  =        -9.06445568
  PAW double counting   =        32.97760406      -15.38426339
  entropy T*S    EENTRO =        -0.00155443
  eigenvalues    EBANDS =        14.33107680
  atomic energy  EATOM  =       103.06077658
  Solvation  Ediel_sol  =         0.00000000
  ---------------------------------------------------
  free energy    TOTEN  =        -4.86623119 eV

  energy without entropy =       -4.86467676  energy(sigma->0) =       -4.86545398


--------------------------------------------------------------------------------------------------------




--------------------------------------- Iteration      1(   6)  ---------------------------------------


    POTLOK:  cpu time      0.0039: real time      0.0041
    SETDIJ:  cpu time      0.0009: real time      0.0009
     EDDAV:  cpu time      0.0375: real time      0.0375
       DOS:  cpu time      0.0009: real time      0.0009
    CHARGE:  cpu time      0.0018: real time      0.0018
    MIXING:  cpu time      0.0004: real time      0.0004
    --------------------------------------------
      LOOP:  cpu time      0.0453: real time      0.0456

 eigenvalue-minimisations  :   756
 total energy-change (2. order) : 0.1122717E-01  (-0.4117906E-03)
 number of electron       3.9999997 magnetization 
 augmentation part       -0.2478508 magnetization 

 Broyden mixing:
  rms(total) = 0.42386E-01    rms(broyden)= 0.42384E-01
  rms(prec ) = 0.16902E+00
  weight for this iteration     100.00

 eigenvalues of (default mixing * dielectric matrix)
  average eigenvalue GAMMA=   2.4610
  2.4610

 Free energy of the ion-electron system (eV)
  ---------------------------------------------------
  alpha Z        PSCENC =         2.10394240
  Ewald energy   TEWEN  =      -132.04207609
  -Hartree energ DENC   =        -0.74864806
  -exchange      EXHF   =         0.00000000
  -V(xc)+E(xc)   XCENC  =        -9.05305671
  PAW double counting   =        33.17694365      -15.57785938
  entropy T*S    EENTRO =        -0.00141657
  eigenvalues    EBANDS =        14.22639017
  atomic energy  EATOM  =       103.06077658
  Solvation  Ediel_sol  =         0.00000000
  ---------------------------------------------------
  free energy    TOTEN  =        -4.85500403 eV

  energy without entropy =       -4.85358745  energy(sigma->0) =       -4.85429574


--------------------------------------------------------------------------------------------------------




--------------------------------------- Iteration      1(   7)  ---------------------------------------


    POTLOK:  cpu time      0.0039: real time      0.0041
    SETDIJ:  cpu time      0.0009: real time      0.0009
     EDDAV:  cpu time      0.0365: real time      0.0365
       DOS:  cpu time      0.0010: real time      0.0010
    CHARGE:  cpu time      0.0022: real time      0.0022
    MIXING:  cpu time      0.0004: real time      0.0004
    --------------------------------------------
      LOOP:  cpu time      0.0448: real time      0.0451

 eigenvalue-minimisations  :   696
 total energy-change (2. order) : 0.6246397E-02  (-0.8848507E-03)
 number of electron       3.9999997 magnetization 
 augmentation part       -0.2511831 magnetization 

 Broyden mixing:
  rms(total) = 0.25014E-02    rms(broyden)= 0.24989E-02
  rms(prec ) = 0.77118E-02
  weight for this iteration     100.00

 eigenvalues of (default mixing * dielectric matrix)
  average eigenvalue GAMMA=   2.4658
  2.4658  2.4658

 Free energy of the ion-electron system (eV)
  ---------------------------------------------------
  alpha Z        PSCENC =         2.10394240
  Ewald energy   TEWEN  =      -132.04207609
  -Hartree energ DENC   =        -0.63082622
  -exchange      EXHF   =         0.00000000
  -V(xc)+E(xc)   XCENC  =        -9.03293187
  PAW double counting   =        33.52934288      -15.92639450
  entropy T*S    EENTRO =        -0.00126390
  eigenvalues    EBANDS =        14.09067309
  atomic energy  EATOM  =       103.06077658
  Solvation  Ediel_sol  =         0.00000000
  ---------------------------------------------------
  free energy    TOTEN  =        -4.84875763 eV

  energy without entropy =       -4.84749373  energy(sigma->0) =       -4.84812568


--------------------------------------------------------------------------------------------------------




--------------------------------------- Iteration      1(   8)  ---------------------------------------


    POTLOK:  cpu time      0.0044: real time      0.0046
    SETDIJ:  cpu time      0.0010: real time      0.0010
     EDDAV:  cpu time      0.0395: real time      0.0396
       DOS:  cpu time      0.0009: real time      0.0009
    --------------------------------------------
      LOOP:  cpu time      0.0458: real time      0.0461

 eigenvalue-minimisations  :   642
 total energy-change (2. order) : 0.1397559E-04  (-0.3404231E-05)
 number of electron       3.9999997 magnetization 
 augmentation part       -0.2511831 magnetization 

 Free energy of the ion-electron system (eV)
  ---------------------------------------------------
  alpha Z        PSCENC =         2.10394240
  Ewald energy   TEWEN  =      -132.04207609
  -Hartree energ DENC   =        -0.63587035
  -exchange      EXHF   =         0.00000000
  -V(xc)+E(xc)   XCENC  =        -9.03113335
  PAW double counting   =        33.63969986      -16.04303205
  entropy T*S    EENTRO =        -0.00126878
  eigenvalues    EBANDS =        14.10021813
  atomic energy  EATOM  =       103.06077658
  Solvation  Ediel_sol  =         0.00000000
  ---------------------------------------------------
  free energy    TOTEN  =        -4.84874366 eV

  energy without entropy =       -4.84747487  energy(sigma->0) =       -4.84810926


--------------------------------------------------------------------------------------------------------




 average (electrostatic) potential at core
  the test charge radii are     0.9892
  (the norm of the test charge is              1.0000)
       1 -81.2182
 
 
 
 E-fermi :   8.6810     XC(G=0): -10.7925     alpha+bet :-14.9903

 Fermi energy:         8.6810075644

 k-point     1 :       0.0000    0.0000    0.0000
  band No.  band energies     occupation 
      1      -4.6610      2.00000
      2      18.8662      0.00000
      3      18.8663      0.00000
      4      18.8663      0.00000
      5      20.5418      0.00000
      6      20.5418      0.00000

 k-point     2 :       0.0909    0.0000    0.0000
  band No.  band energies     occupation 
      1      -4.4366      2.00000
      2      16.3143      0.00000
      3      18.2193      0.00000
      4      18.2193      0.00000
      5      21.2887      0.00000
      6      21.4374      0.00000

 k-point     3 :       0.1818    0.0000    0.0000
  band No.  band energies     occupation 
      1      -3.7647      2.00000
      2      12.7370      0.00000
      3      17.4146      0.00000
      4      17.4146      0.00000
      5      21.3057      0.00000
      6      22.3509      0.00000

 k-point     4 :       0.2727    0.0000    0.0000
  band No.  band energies     occupation 
      1      -2.6515      2.00000
      2       9.2847      0.00000
      3      16.8834      0.00000
      4      16.8834      0.00000
      5      21.1419      0.00000
      6      21.4631      0.00000

 k-point     5 :       0.3636    0.0000    0.0000
  band No.  band energies     occupation 
      1      -1.1091      2.00000
      2       6.1418      2.00000
      3      16.6317      0.00000
      4      16.6317      0.00000
      5      20.2937      0.00000
      6      20.2939      0.00000

 k-point     6 :       0.4545    0.0000    0.0000
  band No.  band energies     occupation 
      1       0.8097      2.00000
      2       3.4163      2.00000
      3      16.5756      0.00000
      4      16.5756      0.00000
      5      19.6104      0.00000
      6      19.6105      0.00000

 k-point     7 :       0.0909    0.0909    0.0000
  band No.  band energies     occupation 
      1      -4.3618      2.00000
      2      17.0359      0.00000
      3      17.0359      0.00000
      4      18.1440      0.00000
      5      19.1490      0.00000
      6      22.7369      0.00000

 k-point     8 :       0.1818    0.0909    0.0000
  band No.  band energies     occupation 
      1      -3.8390      2.00000
      2      14.0684      0.00000
      3      16.0857      0.00000
      4      17.5608      0.00000
      5      19.6011      0.00000
      6      22.4141      0.00000

 k-point     9 :       0.2727    0.0909    0.0000
  band No.  band energies     occupation 
      1      -2.8730      2.00000
      2      10.5789      0.00000
      3      15.4869      0.00000
      4      16.7726      0.00000
      5      19.4824      0.00000
      6      22.3666      0.00000

 k-point    10 :       0.3636    0.0909    0.0000
  band No.  band energies     occupation 
      1      -1.4726      2.00000
      2       7.3330      2.00000
      3      15.2567      0.00000
      4      16.0062      0.00000
      5      18.6714      0.00000
      6      22.3928      0.00000

 k-point    11 :       0.4545    0.0909    0.0000
  band No.  band energies     occupation 
      1       0.3362      2.00000
      2       4.4535      2.00000
      3      15.2222      0.00000
      4      15.3889      0.00000
      5      18.4631      0.00000
      6      21.3141      0.00000

 k-point    12 :      -0.4545    0.0909    0.0000
  band No.  band energies     occupation 
      1       1.6161      2.00000
      2       2.9048      2.00000
      3      14.5719      0.00000
      4      15.8555      0.00000
      5      18.8742      0.00000
      6      20.6121      0.00000

 k-point    13 :      -0.3636    0.0909    0.0000
  band No.  band energies     occupation 
      1      -0.3085      2.00000
      2       5.3662      2.00000
      3      14.2022      0.00000
      4      16.5899      0.00000
      5      19.7759      0.00000
      6      20.3947      0.00000

 k-point    14 :      -0.2727    0.0909    0.0000
  band No.  band energies     occupation 
      1      -1.9869      2.00000
      2       8.3793      1.99998
      3      14.1843      0.00000
      4      17.4665      0.00000
      5      20.7461      0.00000
      6      21.0716      0.00000

 k-point    15 :      -0.1818    0.0909    0.0000
  band No.  band energies     occupation 
      1      -3.2440      2.00000
      2      11.7258      0.00000
      3      14.5407      0.00000
      4      18.3312      0.00000
      5      21.4993      0.00000
      6      22.1499      0.00000

 k-point    16 :      -0.0909    0.0909    0.0000
  band No.  band energies     occupation 
      1      -4.0630      2.00000
      2      15.1941      0.00000
      3      15.3259      0.00000
      4      18.9042      0.00000
      5      21.1227      0.00000
      6      21.7862      0.00000

 k-point    17 :       0.1818    0.1818    0.0000
  band No.  band energies     occupation 
      1      -3.4662      2.00000
      2      15.0124      0.00000
      3      15.0125      0.00000
      4      16.2805      0.00000
      5      17.0596      0.00000
      6      20.0886      0.00000

 k-point    18 :       0.2727    0.1818    0.0000
  band No.  band energies     occupation 
      1      -2.6494      2.00000
      2      12.1930      0.00000
      3      14.2942      0.00000
      4      15.1945      0.00000
      5      17.2750      0.00000
      6      19.4150      0.00000

 k-point    19 :       0.3636    0.1818    0.0000
  band No.  band energies     occupation 
      1      -1.3956      2.00000
      2       8.9127      0.00105
      3      13.8589      0.00000
      4      13.9565      0.00000
      5      16.9173      0.00000
      6      21.3152      0.00000

 k-point    20 :       0.4545    0.1818    0.0000
  band No.  band energies     occupation 
      1       0.2796      2.00000
      2       5.9226      2.00000
      3      12.6272      0.00000
      4      14.0031      0.00000
      5      16.8689      0.00000
      6      23.6348      0.00000

 k-point    21 :      -0.4545    0.1818    0.0000
  band No.  band energies     occupation 
      1       2.2032      2.00000
      2       3.4674      2.00000
      3      11.6849      0.00000
      4      14.4276      0.00000
      5      17.2991      0.00000
      6      23.0907      0.00000

 k-point    22 :      -0.3636    0.1818    0.0000
  band No.  band energies     occupation 
      1       0.9197      2.00000
      2       5.0176      2.00000
      3      11.1074      0.00000
      4      15.2134      0.00000
      5      18.1721      0.00000
      6      22.5931      0.00000

 k-point    23 :      -0.2727    0.1818    0.0000
  band No.  band energies     occupation 
      1      -0.8841      2.00000
      2       7.8776      2.00000
      3      10.9261      0.00000
      4      16.3127      0.00000
      5      19.4455      0.00000
      6      22.5076      0.00000

 k-point    24 :      -0.1818    0.1818    0.0000
  band No.  band energies     occupation 
      1      -2.2808      2.00000
      2      10.9073      0.00000
      3      11.3314      0.00000
      4      17.5826      0.00000
      5      21.0368      0.00000
      6      22.8672      0.00000

 k-point    25 :       0.2727    0.2727    0.0000
  band No.  band energies     occupation 
      1      -1.9826      2.00000
      2      13.1827      0.00000
      3      13.4506      0.00000
      4      13.4507      0.00000
      5      15.3464      0.00000
      6      17.2884      0.00000

 k-point    26 :       0.3636    0.2727    0.0000
  band No.  band energies     occupation 
      1      -0.8776      2.00000
      2      10.6877      0.00000
      3      11.7125      0.00000
      4      12.9885      0.00000
      5      15.5690      0.00000
      6      17.8370      0.00000

 k-point    27 :       0.4545    0.2727    0.0000
  band No.  band energies     occupation 
      1       0.6531      2.00000
      2       7.7497      2.00000
      3      10.1272      0.00000
      4      12.9155      0.00000
      5      15.5971      0.00000
      6      20.3574      0.00000

 k-point    28 :      -0.4545    0.2727    0.0000
  band No.  band energies     occupation 
      1       2.5599      2.00000
      2       5.0861      2.00000
      3       8.9576      0.00009
      4      13.2311      0.00000
      5      15.9543      0.00000
      6      23.3336      0.00000

 k-point    29 :      -0.3636    0.2727    0.0000
  band No.  band energies     occupation 
      1       2.5478      2.00000
      2       5.1002      2.00000
      3       8.2049      2.00000
      4      13.9279      0.00000
      5      16.7313      0.00000
      6      25.3931      0.00000

 k-point    30 :      -0.2727    0.2727    0.0000
  band No.  band energies     occupation 
      1       0.6445      2.00000
      2       7.5539      2.00000
      3       8.1008      2.00000
      4      14.9808      0.00000
      5      17.9118      0.00000
      6      24.7625      0.00000

 k-point    31 :       0.3636    0.3636    0.0000
  band No.  band energies     occupation 
      1       0.0768      2.00000
      2       9.4176      0.00000
      3      12.3986      0.00000
      4      12.3986      0.00000
      5      14.1747      0.00000
      6      15.8987      0.00000

 k-point    32 :       0.4545    0.3636    0.0000
  band No.  band energies     occupation 
      1       1.4579      2.00000
      2       7.6883      2.00000
      3      10.1394      0.00000
      4      12.1984      0.00000
      5      14.6488      0.00000
      6      16.9836      0.00000

 k-point    33 :      -0.4545    0.3636    0.0000
  band No.  band energies     occupation 
      1       3.2406      2.00000
      2       6.2366      2.00000
      3       7.5183      2.00000
      4      12.3908      0.00000
      5      14.9879      0.00000
      6      19.8616      0.00000

 k-point    34 :      -0.3636    0.3636    0.0000
  band No.  band energies     occupation 
      1       4.4285      2.00000
      2       5.2930      2.00000
      3       6.1067      2.00000
      4      12.9717      0.00000
      5      15.6560      0.00000
      6      23.1518      0.00000

 k-point    35 :       0.4545    0.4545    0.0000
  band No.  band energies     occupation 
      1       2.6849      2.00000
      2       5.8461      2.00000
      3      11.8698      0.00000
      4      11.8698      0.00000
      5      13.5833      0.00000
      6      15.2733      0.00000

 k-point    36 :      -0.4545    0.4545    0.0000
  band No.  band energies     occupation 
      1       4.1580      2.00000
      2       4.5201      2.00000
      3       9.8354      0.00000
      4      11.9342      0.00000
      5      14.3473      0.00000
      6      16.7039      0.00000

 k-point    37 :       0.2727    0.1818    0.0909
  band No.  band energies     occupation 
      1      -3.1693      2.00000
      2      13.0778      0.00000
      3      13.3347      0.00000
      4      17.3977      0.00000
      5      19.4934      0.00000
      6      21.0215      0.00000

 k-point    38 :       0.3636    0.1818    0.0909
  band No.  band energies     occupation 
      1      -2.0591      2.00000
      2       9.8122      0.00000
      3      12.7318      0.00000
      4      16.1675      0.00000
      5      19.5407      0.00000
      6      21.8276      0.00000

 k-point    39 :       0.4545    0.1818    0.0909
  band No.  band energies     occupation 
      1      -0.5200      2.00000
      2       6.6970      2.00000
      3      12.6173      0.00000
      4      14.8962      0.00000
      5      19.3089      0.00000
      6      21.5463      0.00000

 k-point    40 :      -0.4545    0.1818    0.0909
  band No.  band energies     occupation 
      1       1.3941      2.00000
      2       3.9828      2.00000
      3      12.8025      0.00000
      4      13.9787      0.00000
      5      19.3879      0.00000
      6      20.7414      0.00000

 k-point    41 :       0.3636    0.2727    0.0909
  band No.  band energies     occupation 
      1      -1.6886      2.00000
      2      11.4356      0.00000
      3      11.6698      0.00000
      4      13.9477      0.00000
      5      17.8854      0.00000
      6      18.9274      0.00000

 k-point    42 :       0.4545    0.2727    0.0909
  band No.  band energies     occupation 
      1      -0.2953      2.00000
      2       8.4053      1.99990
      3      11.2252      0.00000
      4      12.5035      0.00000
      5      18.1130      0.00000
      6      20.8711      0.00000

 k-point    43 :      -0.4545    0.2727    0.0909
  band No.  band energies     occupation 
      1       1.5046      2.00000
      2       5.5691      2.00000
      3      10.7172      0.00000
      4      11.9366      0.00000
      5      18.3073      0.00000
      6      22.8805      0.00000

 k-point    44 :      -0.3636    0.2727    0.0909
  band No.  band energies     occupation 
      1       2.7839      2.00000
      2       4.0284      2.00000
      3       9.9841      0.00000
      4      12.3886      0.00000
      5      18.8700      0.00000
      6      22.5086      0.00000

 k-point    45 :      -0.2727    0.2727    0.0909
  band No.  band energies     occupation 
      1       0.8605      2.00000
      2       6.4744      2.00000
      3       9.5496      0.00000
      4      13.3419      0.00000
      5      19.7600      0.00000
      6      22.1308      0.00000

 k-point    46 :      -0.1818    0.2727    0.0909
  band No.  band energies     occupation 
      1      -0.8093      2.00000
      2       9.2371      0.00000
      3       9.7094      0.00000
      4      14.6705      0.00000
      5      20.7648      0.00000
      6      21.6484      0.00000

 k-point    47 :       0.4545    0.3636    0.0909
  band No.  band energies     occupation 
      1       0.3661      2.00000
      2       9.4992      0.00000
      3      10.3290      0.00000
      4      11.1285      0.00000
      5      16.7839      0.00000
      6      17.7906      0.00000

 k-point    48 :      -0.4545    0.3636    0.0909
  band No.  band energies     occupation 
      1       2.0267      2.00000
      2       7.4032      2.00000
      3       8.5027      1.98833
      4      10.7898      0.00000
      5      17.2906      0.00000
      6      20.1704      0.00000

 k-point    49 :      -0.3636    0.3636    0.0909
  band No.  band energies     occupation 
      1       3.9461      2.00000
      2       5.0809      2.00000
      3       7.3946      2.00000
      4      11.2157      0.00000
      5      17.7862      0.00000
      6      23.2315      0.00000

 k-point    50 :      -0.2727    0.3636    0.0909
  band No.  band energies     occupation 
      1       2.6411      2.00000
      2       6.4251      2.00000
      3       6.9980      2.00000
      4      12.0810      0.00000
      5      18.6378      0.00000
      6      24.8821      0.00000

 k-point    51 :      -0.4545    0.4545    0.0909
  band No.  band energies     occupation 
      1       2.9673      2.00000
      2       6.0995      2.00000
      3       9.7729      0.00000
      4      10.3852      0.00000
      5      16.2256      0.00000
      6      17.2430      0.00000

 k-point    52 :      -0.3636    0.4545    0.0909
  band No.  band energies     occupation 
      1       4.7257      2.00000
      2       4.9865      2.00000
      3       7.4779      2.00000
      4      10.4700      0.00000
      5      17.0130      0.00000
      6      19.9254      0.00000

 k-point    53 :      -0.4545    0.3636    0.1818
  band No.  band energies     occupation 
      1       1.2297      2.00000
      2       8.1141      2.00000
      3       8.5005      1.98929
      4      10.9130      0.00000
      5      20.5976      0.00000
      6      20.7934      0.00000

 k-point    54 :      -0.3636    0.3636    0.1818
  band No.  band energies     occupation 
      1       3.1285      2.00000
      2       5.6403      2.00000
      3       8.5235      1.97408
      4       9.8711      0.00000
      5      20.8022      0.00000
      6      22.1865      0.00000

 k-point    55 :      -0.3636    0.4545    0.1818
  band No.  band energies     occupation 
      1       3.7958      2.00000
      2       6.7188      2.00000
      3       7.5515      2.00000
      4       8.5783      1.85351
      5      20.0673      0.00000
      6      20.5127      0.00000

 k-point    56 :      -0.2727    0.4545    0.1818
  band No.  band energies     occupation 
      1       5.0046      2.00000
      2       5.8587      2.00000
      3       6.4888      2.00000
      4       8.7521      0.31479
      5      20.7890      0.00000
      6      23.2318      0.00000


--------------------------------------------------------------------------------------------------------


 soft charge-density along one line, spin component           1
         0         1         2         3         4         5         6         7         8         9
 total charge-density along one line
 
 pseudopotential strength for first ion, spin component:           1
 18.117  -0.002   0.000   0.000  -0.000  -0.000  -0.000   0.000
 -0.002   0.005  -0.000  -0.000   0.000   0.000   0.000  -0.000
  0.000  -0.000   4.117  -0.000  -0.000  -0.005   0.000   0.000
  0.000  -0.000  -0.000   4.117  -0.000   0.000  -0.005   0.000
 -0.000   0.000  -0.000  -0.000   4.117   0.000   0.000  -0.005
 -0.000   0.000  -0.005   0.000   0.000   0.005  -0.000  -0.000
 -0.000   0.000   0.000  -0.005   0.000  -0.000   0.005  -0.000
  0.000  -0.000   0.000   0.000  -0.005  -0.000  -0.000   0.005
 total augmentation occupancy for first ion, spin component:           1
  1.807  -0.203   0.000   0.000   0.000   0.000   0.000   0.000
 -0.203   0.947   0.000   0.000   0.000   0.000   0.000   0.000
  0.000   0.000   0.718  -0.000  -0.000  -0.447   0.000  -0.000
  0.000   0.000   0.000   0.718   0.000   0.000  -0.447  -0.000
  0.000   0.000   0.000   0.000   0.718   0.000   0.000  -0.447
  0.000   0.000  -0.447   0.000  -0.000   0.353  -0.000   0.000
  0.000   0.000   0.000  -0.447  -0.000  -0.000   0.353   0.000
  0.000   0.000  -0.000  -0.000  -0.447   0.000   0.000   0.353


------------------------ aborting loop because EDIFF is reached ----------------------------------------


    CHARGE:  cpu time      0.0021: real time      0.0021
    FORLOC:  cpu time      0.0003: real time      0.0003
    FORNL :  cpu time      0.0026: real time      0.0026
    STRESS:  cpu time      0.0172: real time      0.0173
    FORCOR:  cpu time      0.0045: real time      0.0045
    FORHAR:  cpu time      0.0010: real time      0.0010
    MIXING:  cpu time      0.0003: real time      0.0003
    OFIELD:  cpu time      0.0000: real time      0.0000

  FORCE on cell =-STRESS in cart. coord.  units (eV):
  Direction    XX          YY          ZZ          XY          YZ          ZX
  --------------------------------------------------------------------------------------
  Alpha Z     2.10394     2.10394     2.10394
  Ewald     -44.01403   -44.01403   -44.01403     0.00000    -0.00000    -0.00000
  Hartree     0.21206     0.21206     0.21206     0.00000     0.00000     0.00000
  E(xc)     -12.40940   -12.40940   -12.40940     0.00000     0.00000     0.00000
  Local      -5.97186    -5.97186    -5.97186     0.00003     0.00003     0.00003
  n-local    39.12319    37.61998    39.12824    -0.29758     0.42769     0.50219
  augment    -6.40539    -6.40539    -6.40539    -0.00003    -0.00003    -0.00003
  Kinetic    20.12907    36.81794    24.63832     9.72140    -7.90861   -14.39688
  Fock        0.00000     0.00000     0.00000     0.00000     0.00000     0.00000
  -------------------------------------------------------------------------------------
  Total      -0.66576    -0.66576    -0.66576     0.00000    -0.00000     0.00000
  in kB     -66.66637   -66.66637   -66.66637     0.00000    -0.00000     0.00000
  external pressure =      -66.67 kB  Pullay stress =        0.00 kB


 VOLUME and BASIS-vectors are now :
 -----------------------------------------------------------------------------
  energy-cutoff  :      240.00
  volume of cell :       16.00
      direct lattice vectors                 reciprocal lattice vectors
     2.000000000  2.000000000  0.000000000     0.250000000  0.250000000 -0.250000000
     0.000000000  2.000000000  2.000000000    -0.250000000  0.250000000  0.250000000
     2.000000000  0.000000000  2.000000000     0.250000000 -0.250000000  0.250000000

  length of vectors
     2.828427125  2.828427125  2.828427125     0.433012702  0.433012702  0.433012702


 FORCES acting on ions
    electron-ion (+dipol)            ewald-force                    non-local-force                 convergence-correction
 -----------------------------------------------------------------------------------------------
   0.687E-15 0.131E-14 -.380E-15   0.253E-15 0.642E-16 -.423E-16   0.000E+00 -.993E-23 0.000E+00   -.302E-17 0.542E-17 -.104E-16
 -----------------------------------------------------------------------------------------------
   0.687E-15 0.131E-14 -.380E-15   0.253E-15 0.642E-16 -.423E-16   0.000E+00 -.993E-23 0.000E+00   -.302E-17 0.542E-17 -.104E-16
 
 
 POSITION                                       TOTAL-FORCE (eV/Angst)
 -----------------------------------------------------------------------------------
      0.00000      0.00000      0.00000         0.000000      0.000000      0.000000
 -----------------------------------------------------------------------------------
    total drift:                                0.000000      0.000000     -0.000000


--------------------------------------------------------------------------------------------------------



  FREE ENERGIE OF THE ION-ELECTRON SYSTEM (eV)
  ---------------------------------------------------
  free  energy   TOTEN  =        -4.84874366 eV

  energy  without entropy=       -4.84747487  energy(sigma->0) =       -4.84810926
 


--------------------------------------------------------------------------------------------------------


    POTLOK:  cpu time      0.0056: real time      0.0056


--------------------------------------------------------------------------------------------------------




--------------------------------------------------------------------------------------------------------


    WAVPRE:  cpu time      0.0151: real time      0.0237
    FEWALD:  cpu time      0.0002: real time      0.0002
    GENKIN:  cpu time      0.0012: real time      0.0012
    ORTHCH:  cpu time      0.0013: real time      0.0013
     LOOP+:  cpu time      0.4349: real time      0.4475


--------------------------------------- Iteration      2(   1)  ---------------------------------------


    POTLOK:  cpu time      0.0041: real time      0.0041
    SETDIJ:  cpu time      0.0010: real time      0.0010
     EDDAV:  cpu time      0.0383: real time      0.0384
       DOS:  cpu time      0.0009: real time      0.0009
    CHARGE:  cpu time      0.0023: real time      0.0023
    MIXING:  cpu time      0.0003: real time      0.0003
    --------------------------------------------
      LOOP:  cpu time      0.0469: real time      0.0471

 eigenvalue-minimisations  :   708
 total energy-change (2. order) :-0.5489683E-01  (-0.1098974E+00)
 number of electron       4.0000001 magnetization 
 augmentation part       -0.2422643 magnetization 

 Broyden mixing:
  rms(total) = 0.71223E-01    rms(broyden)= 0.71186E-01
  rms(prec ) = 0.29262E+00
  weight for this iteration     100.00

 Free energy of the ion-electron system (eV)
  ---------------------------------------------------
  alpha Z        PSCENC =         2.32041945
  Ewald energy   TEWEN  =      -136.42372207
  -Hartree energ DENC   =        -0.65725798
  -exchange      EXHF   =         0.00000000
  -V(xc)+E(xc)   XCENC  =        -8.78873964
  PAW double counting   =        33.65383239      -16.05804950
  entropy T*S    EENTRO =        -0.00270060
  eigenvalues    EBANDS =        17.99178690
  atomic energy  EATOM  =       103.06077658
  Solvation  Ediel_sol  =         0.00000000
  ---------------------------------------------------
  free energy    TOTEN  =        -4.90365447 eV

  energy without entropy =       -4.90095387  energy(sigma->0) =       -4.90230417


--------------------------------------------------------------------------------------------------------




--------------------------------------- Iteration      2(   2)  ---------------------------------------


    POTLOK:  cpu time      0.0043: real time      0.0044
    SETDIJ:  cpu time      0.0010: real time      0.0010
     EDDAV:  cpu time      0.0402: real time      0.0403
       DOS:  cpu time      0.0008: real time      0.0008
    CHARGE:  cpu time      0.0020: real time      0.0020
    MIXING:  cpu time      0.0002: real time      0.0002
    --------------------------------------------
      LOOP:  cpu time      0.0485: real time      0.0487

 eigenvalue-minimisations  :   786
 total energy-change (2. order) : 0.1273308E-01  (-0.5459098E-03)
 number of electron       4.0000001 magnetization 
 augmentation part       -0.2438374 magnetization 

 Broyden mixing:
  rms(total) = 0.41911E-01    rms(broyden)= 0.41909E-01
  rms(prec ) = 0.17349E+00
  weight for this iteration     100.00

 eigenvalues of (default mixing * dielectric matrix)
  average eigenvalue GAMMA=   2.4218
  2.4218

 Free energy of the ion-electron system (eV)
  ---------------------------------------------------
  alpha Z        PSCENC =         2.32041945
  Ewald energy   TEWEN  =      -136.42372207
  -Hartree energ DENC   =        -0.56203749
  -exchange      EXHF   =         0.00000000
  -V(xc)+E(xc)   XCENC  =        -8.77817391
  PAW double counting   =        33.73949818      -16.14438699
  entropy T*S    EENTRO =        -0.00272364
  eigenvalues    EBANDS =        17.89942852
  atomic energy  EATOM  =       103.06077658
  Solvation  Ediel_sol  =         0.00000000
  ---------------------------------------------------
  free energy    TOTEN  =        -4.89092139 eV

  energy without entropy =       -4.88819774  energy(sigma->0) =       -4.88955956


--------------------------------------------------------------------------------------------------------




--------------------------------------- Iteration      2(   3)  ---------------------------------------


    POTLOK:  cpu time      0.0040: real time      0.0041
    SETDIJ:  cpu time      0.0009: real time      0.0009
     EDDAV:  cpu time      0.0362: real time      0.0363
       DOS:  cpu time      0.0009: real time      0.0009
    CHARGE:  cpu time      0.0017: real time      0.0017
    MIXING:  cpu time      0.0002: real time      0.0002
    --------------------------------------------
      LOOP:  cpu time      0.0439: real time      0.0441

 eigenvalue-minimisations  :   744
 total energy-change (2. order) : 0.7263629E-02  (-0.8518188E-03)
 number of electron       4.0000001 magnetization 
 augmentation part       -0.2470665 magnetization 

 Broyden mixing:
  rms(total) = 0.15937E-02    rms(broyden)= 0.15926E-02
  rms(prec ) = 0.26483E-02
  weight for this iteration     100.00

 eigenvalues of (default mixing * dielectric matrix)
  average eigenvalue GAMMA=   1.7849
  1.1283  2.4415

 Free energy of the ion-electron system (eV)
  ---------------------------------------------------
  alpha Z        PSCENC =         2.32041945
  Ewald energy   TEWEN  =      -136.42372207
  -Hartree energ DENC   =        -0.44703158
  -exchange      EXHF   =         0.00000000
  -V(xc)+E(xc)   XCENC  =        -8.75757870
  PAW double counting   =        33.98867470      -16.39924784
  entropy T*S    EENTRO =        -0.00278599
  eigenvalues    EBANDS =        17.77683771
  atomic energy  EATOM  =       103.06077658
  Solvation  Ediel_sol  =         0.00000000
  ---------------------------------------------------
  free energy    TOTEN  =        -4.88365776 eV

  energy without entropy =       -4.88087176  energy(sigma->0) =       -4.88226476


--------------------------------------------------------------------------------------------------------




--------------------------------------- Iteration      2(   4)  ---------------------------------------


    POTLOK:  cpu time      0.0039: real time      0.0041
    SETDIJ:  cpu time      0.0009: real time      0.0009
     EDDAV:  cpu time      0.0273: real time      0.0274
       DOS:  cpu time      0.0008: real time      0.0008
    --------------------------------------------
      LOOP:  cpu time      0.0330: real time      0.0332

 eigenvalue-minimisations  :   534
 total energy-change (2. order) : 0.1230983E-04  (-0.1609560E-05)
 number of electron       4.0000001 magnetization 
 augmentation part       -0.2470665 magnetization 

 Free energy of the ion-electron system (eV)
  ---------------------------------------------------
  alpha Z        PSCENC =         2.32041945
  Ewald energy   TEWEN  =      -136.42372207
  -Hartree energ DENC   =        -0.44787672
  -exchange      EXHF   =         0.00000000
  -V(xc)+E(xc)   XCENC  =        -8.75663888
  PAW double counting   =        34.04751502      -16.46146416
  entropy T*S    EENTRO =        -0.00278523
  eigenvalues    EBANDS =        17.78013057
  atomic energy  EATOM  =       103.06077658
  Solvation  Ediel_sol  =         0.00000000
  ---------------------------------------------------
  free energy    TOTEN  =        -4.88364545 eV

  energy without entropy =       -4.88086021  energy(sigma->0) =       -4.88225283


--------------------------------------------------------------------------------------------------------




 average (electrostatic) potential at core
  the test charge radii are     0.9892
  (the norm of the test charge is              1.0000)
       1 -79.9532
 
 
 
 E-fermi :   9.9908     XC(G=0): -11.1858     alpha+bet :-16.5327

 Fermi energy:         9.9907888550

 k-point     1 :       0.0000    0.0000    0.0000
  band No.  band energies     occupation 
      1      -4.2945      2.00000
      2      21.2432      0.00000
      3      21.2432      0.00000
      4      21.2432      0.00000
      5      22.1369      0.00000
      6      22.1369      0.00000

 k-point     2 :       0.0909    0.0000    0.0000
  band No.  band energies     occupation 
      1      -4.0543      2.00000
      2      18.1238      0.00000
      3      20.3131      0.00000
      4      20.3131      0.00000
      5      23.3071      0.00000
      6      23.3481      0.00000

 k-point     3 :       0.1818    0.0000    0.0000
  band No.  band energies     occupation 
      1      -3.3351      2.00000
      2      14.2488      0.00000
      3      19.4105      0.00000
      4      19.4105      0.00000
      5      23.3715      0.00000
      6      24.3581      0.00000

 k-point     4 :       0.2727    0.0000    0.0000
  band No.  band energies     occupation 
      1      -2.1430      2.00000
      2      10.5529      0.00000
      3      18.8638      0.00000
      4      18.8638      0.00000
      5      23.2410      0.00000
      6      23.2788      0.00000

 k-point     5 :       0.3636    0.0000    0.0000
  band No.  band energies     occupation 
      1      -0.4880      2.00000
      2       7.1921      2.00000
      3      18.6500      0.00000
      4      18.6501      0.00000
      5      21.9504      0.00000
      6      21.9505      0.00000

 k-point     6 :       0.4545    0.0000    0.0000
  band No.  band energies     occupation 
      1       1.6021      2.00000
      2       4.2437      2.00000
      3      18.6591      0.00000
      4      18.6591      0.00000
      5      21.1456      0.00000
      6      21.1457      0.00000

 k-point     7 :       0.0909    0.0909    0.0000
  band No.  band energies     occupation 
      1      -3.9743      2.00000
      2      18.9454      0.00000
      3      18.9454      0.00000
      4      20.5174      0.00000
      5      20.6280      0.00000
      6      24.8331      0.00000

 k-point     8 :       0.1818    0.0909    0.0000
  band No.  band energies     occupation 
      1      -3.4148      2.00000
      2      15.6821      0.00000
      3      17.9115      0.00000
      4      19.6422      0.00000
      5      21.4650      0.00000
      6      24.1786      0.00000

 k-point     9 :       0.2727    0.0909    0.0000
  band No.  band energies     occupation 
      1      -2.3805      2.00000
      2      11.9368      0.00000
      3      17.2759      0.00000
      4      18.8422      0.00000
      5      21.1012      0.00000
      6      24.4809      0.00000

 k-point    10 :       0.3636    0.0909    0.0000
  band No.  band energies     occupation 
      1      -0.8797      2.00000
      2       8.4669      2.00000
      3      17.0453      0.00000
      4      18.0479      0.00000
      5      20.1447      0.00000
      6      24.3271      0.00000

 k-point    11 :       0.4545    0.0909    0.0000
  band No.  band energies     occupation 
      1       1.0718      2.00000
      2       5.3757      2.00000
      3      17.1330      0.00000
      4      17.2132      0.00000
      5      19.9873      0.00000
      6      23.1402      0.00000

 k-point    12 :      -0.4545    0.0909    0.0000
  band No.  band energies     occupation 
      1       2.5438      2.00000
      2       3.6177      2.00000
      3      16.3634      0.00000
      4      17.7555      0.00000
      5      20.4992      0.00000
      6      22.3467      0.00000

 k-point    13 :      -0.3636    0.0909    0.0000
  band No.  band energies     occupation 
      1       0.3730      2.00000
      2       6.3591      2.00000
      3      15.9240      0.00000
      4      18.6092      0.00000
      5      21.5082      0.00000
      6      22.0493      0.00000

 k-point    14 :      -0.2727    0.0909    0.0000
  band No.  band energies     occupation 
      1      -1.4311      2.00000
      2       9.5834      2.00000
      3      15.8798      0.00000
      4      19.6288      0.00000
      5      22.3589      0.00000
      6      22.9260      0.00000

 k-point    15 :      -0.1818    0.0909    0.0000
  band No.  band energies     occupation 
      1      -2.7777      2.00000
      2      13.1570      0.00000
      3      16.2502      0.00000
      4      20.6136      0.00000
      5      23.1793      0.00000
      6      24.3194      0.00000

 k-point    16 :      -0.0909    0.0909    0.0000
  band No.  band energies     occupation 
      1      -3.6544      2.00000
      2      16.7885      0.00000
      3      17.1848      0.00000
      4      21.3225      0.00000
      5      22.7587      0.00000
      6      23.9256      0.00000

[...]
      1       0.4039      2.00000
      2       6.4038      2.00000
      3      16.0005      0.00000
      4      18.6994      0.00000
      5      21.5851      0.00000
      6      22.1224      0.00000

 k-point    14 :      -0.2727    0.0909    0.0000
  band No.  band energies     occupation 
      1      -1.4055      2.00000
      2       9.6370      2.00000
      3      15.9552      0.00000
      4      19.7260      0.00000
      5      22.4293      0.00000
      6      23.0082      0.00000

 k-point    15 :      -0.1818    0.0909    0.0000
  band No.  band energies     occupation 
      1      -2.7559      2.00000
      2      13.2202      0.00000
      3      16.3262      0.00000
      4      20.7161      0.00000
      5      23.2530      0.00000
      6      24.4159      0.00000

 k-point    16 :      -0.0909    0.0909    0.0000
  band No.  band energies     occupation 
      1      -3.6351      2.00000
      2      16.8584      0.00000
      3      17.2671      0.00000
      4      21.4320      0.00000
      5      22.8303      0.00000
      6      24.0216      0.00000

 k-point    17 :       0.1818    0.1818    0.0000
  band No.  band energies     occupation 
      1      -2.9948      2.00000
      2      16.8241      0.00000
      3      16.8241      0.00000
      4      18.4411      0.00000
      5      18.6967      0.00000
      6      21.7309      0.00000

 k-point    18 :       0.2727    0.1818    0.0000
  band No.  band energies     occupation 
      1      -2.1184      2.00000
      2      13.7413      0.00000
      3      16.0541      0.00000
      4      17.2811      0.00000
      5      18.7605      0.00000
      6      21.2542      0.00000

 k-point    19 :       0.3636    0.1818    0.0000
  band No.  band energies     occupation 
      1      -0.7720      2.00000
      2      10.2165      0.02166
      3      15.6981      0.00000
      4      15.7315      0.00000
      5      18.4093      0.00000
      6      23.4169      0.00000

 k-point    20 :       0.4545    0.1818    0.0000
  band No.  band energies     occupation 
      1       1.0329      2.00000
      2       7.0050      2.00000
      3      14.3315      0.00000
      4      15.7573      0.00000
      5      18.4364      0.00000
      6      25.9835      0.00000

 k-point    21 :      -0.4545    0.1818    0.0000
  band No.  band energies     occupation 
      1       3.2112      2.00000
      2       4.2577      2.00000
      3      13.2812      0.00000
      4      16.2260      0.00000
      5      18.9432      0.00000
      6      25.1561      0.00000

 k-point    22 :      -0.3636    0.1818    0.0000
  band No.  band energies     occupation 
      1       1.7310      2.00000
      2       6.0186      2.00000
      3      12.6440      0.00000
      4      17.0922      0.00000
      5      19.9028      0.00000
      6      24.6047      0.00000

 k-point    23 :      -0.2727    0.1818    0.0000
  band No.  band energies     occupation 
      1      -0.2207      2.00000
      2       9.0845      2.00000
      3      12.4514      0.00000
      4      18.3183      0.00000
      5      21.2795      0.00000
      6      24.4834      0.00000

 k-point    24 :      -0.1818    0.1818    0.0000
  band No.  band energies     occupation 
      1      -1.7219      2.00000
      2      12.2021      0.00000
      3      13.0110      0.00000
      4      19.7882      0.00000
      5      22.9934      0.00000
      6      24.7014      0.00000

 k-point    25 :       0.2727    0.2727    0.0000
  band No.  band energies     occupation 
      1      -1.4036      2.00000
      2      15.1287      0.00000
      3      15.1469      0.00000
      4      15.1470      0.00000
      5      16.6013      0.00000
      6      19.0192      0.00000

 k-point    26 :       0.3636    0.2727    0.0000
  band No.  band energies     occupation 
      1      -0.2184      2.00000
      2      12.2315      0.00000
      3      13.2490      0.00000
      4      14.6543      0.00000
      5      16.9932      0.00000
      6      19.7272      0.00000

 k-point    27 :       0.4545    0.2727    0.0000
  band No.  band energies     occupation 
      1       1.4261      2.00000
      2       9.0031      2.00000
      3      11.5691      0.00000
      4      14.5801      0.00000
      5      17.1055      0.00000
      6      22.4112      0.00000

 k-point    28 :      -0.4545    0.2727    0.0000
  band No.  band energies     occupation 
      1       3.5032      2.00000
      2       6.0951      2.00000
      3      10.3173      0.00020
      4      14.9235      0.00000
      5      17.5238      0.00000
      6      25.5900      0.00000

 k-point    29 :      -0.3636    0.2727    0.0000
  band No.  band energies     occupation 
      1       3.5045      2.00000
      2       6.0735      2.00000
      3       9.5247      2.00000
      4      15.6791      0.00000
      5      18.3725      0.00000
      6      27.6484      0.00000

 k-point    30 :      -0.2727    0.2727    0.0000
  band No.  band energies     occupation 
      1       1.4249      2.00000
      2       8.6051      2.00000
      3       9.5465      2.00000
      4      16.8288      0.00000
      5      19.6422      0.00000
      6      27.0773      0.00000

 k-point    31 :       0.3636    0.3636    0.0000
  band No.  band energies     occupation 
      1       0.8031      2.00000
      2      10.9256      0.00000
      3      14.0229      0.00000
      4      14.0229      0.00000
      5      15.3443      0.00000
      6      17.7242      0.00000

 k-point    32 :       0.4545    0.3636    0.0000
  band No.  band energies     occupation 
      1       2.2815      2.00000
      2       9.0672      2.00000
      3      11.4420      0.00000
      4      13.8105      0.00000
      5      16.0487      0.00000
      6      18.8651      0.00000

 k-point    33 :      -0.4545    0.3636    0.0000
  band No.  band energies     occupation 
      1       4.1905      2.00000
      2       7.5862      2.00000
      3       8.5440      2.00000
      4      14.0185      0.00000
      5      16.4839      0.00000
      6      21.8899      0.00000

 k-point    34 :      -0.3636    0.3636    0.0000
  band No.  band energies     occupation 
      1       5.6640      2.00000
      2       6.1901      2.00000
      3       7.2167      2.00000
      4      14.6442      0.00000
      5      17.2195      0.00000
      6      25.3871      0.00000

 k-point    35 :       0.4545    0.4545    0.0000
  band No.  band energies     occupation 
      1       3.5796      2.00000
      2       7.0697      2.00000
      3      13.4592      0.00000
      4      13.4592      0.00000
      5      14.7101      0.00000
      6      17.1139      0.00000

 k-point    36 :      -0.4545    0.4545    0.0000
  band No.  band energies     occupation 
      1       4.9799      2.00000
      2       5.8331      2.00000
      3      11.1346      0.00000
      4      13.5287      0.00000
      5      15.7357      0.00000
      6      18.5782      0.00000

 k-point    37 :       0.2727    0.1818    0.0909
  band No.  band energies     occupation 
      1      -2.6760      2.00000
      2      14.5552      0.00000
      3      15.1458      0.00000
      4      19.6794      0.00000
      5      21.2390      0.00000
      6      22.8599      0.00000

 k-point    38 :       0.3636    0.1818    0.0909
  band No.  band energies     occupation 
      1      -1.4840      2.00000
      2      11.1655      0.00000
      3      14.3946      0.00000
      4      18.1596      0.00000
      5      21.3152      0.00000
      6      23.9680      0.00000

 k-point    39 :       0.4545    0.1818    0.0909
  band No.  band energies     occupation 
      1       0.1717      2.00000
      2       7.8331      2.00000
      3      14.2913      0.00000
      4      16.6882      0.00000
      5      21.1552      0.00000
      6      23.5657      0.00000

 k-point    40 :      -0.4545    0.1818    0.0909
  band No.  band energies     occupation 
      1       2.2626      2.00000
      2       4.8902      2.00000
      3      14.5632      0.00000
      4      15.5998      0.00000
      5      21.3215      0.00000
      6      22.6246      0.00000

 k-point    41 :       0.3636    0.2727    0.0909
  band No.  band energies     occupation 
      1      -1.0874      2.00000
      2      12.7864      0.00000
      3      13.4236      0.00000
      4      15.6536      0.00000
      5      19.5248      0.00000
      6      20.8913      0.00000

 k-point    42 :       0.4545    0.2727    0.0909
  band No.  band energies     occupation 
      1       0.4091      2.00000
      2       9.6695      2.00000
      3      12.8721      0.00000
      4      13.9742      0.00000
      5      19.8762      0.00000
      6      22.9661      0.00000

 k-point    43 :      -0.4545    0.2727    0.0909
  band No.  band energies     occupation 
      1       2.3546      2.00000
      2       6.6202      2.00000
      3      12.3286      0.00000
      4      13.3428      0.00000
      5      20.1322      0.00000
      6      25.0851      0.00000

 k-point    44 :      -0.3636    0.2727    0.0909
  band No.  band energies     occupation 
      1       3.8347      2.00000
      2       4.8577      2.00000
      3      11.4640      0.00000
      4      13.9067      0.00000
      5      20.7643      0.00000
      6      24.5862      0.00000

 k-point    45 :      -0.2727    0.2727    0.0909
  band No.  band energies     occupation 
      1       1.6580      2.00000
      2       7.5778      2.00000
      3      10.9876      0.00000
      4      14.9632      0.00000
      5      21.7512      0.00000
      6      24.1401      0.00000

 k-point    46 :      -0.1818    0.2727    0.0909
  band No.  band energies     occupation 
      1      -0.1416      2.00000
      2      10.4089      0.00000
      3      11.2876      0.00000
      4      16.4285      0.00000
      5      22.8968      0.00000
      6      23.5766      0.00000

 k-point    47 :       0.4545    0.3636    0.0909
  band No.  band energies     occupation 
      1       1.1152      2.00000
      2      11.1294      0.00000
      3      11.5982      0.00000
      4      12.5155      0.00000
      5      18.3484      0.00000
      6      19.7768      0.00000

 k-point    48 :      -0.4545    0.3636    0.0909
  band No.  band energies     occupation 
      1       2.8997      2.00000
      2       8.7134      2.00000
      3       9.7494      1.99998
      4      12.1868      0.00000
      5      19.0166      0.00000
      6      22.2313      0.00000

 k-point    49 :      -0.3636    0.3636    0.0909
  band No.  band energies     occupation 
      1       5.0577      2.00000
      2       6.0344      2.00000
      3       8.6325      2.00000
      4      12.6617      0.00000
      5      19.5856      0.00000
      6      25.4837      0.00000

 k-point    50 :      -0.2727    0.3636    0.0909
  band No.  band energies     occupation 
      1       3.5889      2.00000
      2       7.3988      2.00000
      3       8.3501      2.00000
      4      13.5987      0.00000
      5      20.5166      0.00000
      6      27.0726      0.00000

 k-point    51 :      -0.4545    0.4545    0.0909
  band No.  band energies     occupation 
      1       3.8870      2.00000
      2       7.3624      2.00000
      3      11.0019      0.00000
      4      11.8381      0.00000
      5      17.7525      0.00000
      6      19.2226      0.00000

 k-point    52 :      -0.3636    0.4545    0.0909
  band No.  band energies     occupation 
      1       5.5851      2.00000
      2       6.4064      2.00000
      3       8.5402      2.00000
      4      11.8727      0.00000
      5      18.7248      0.00000
      6      21.9741      0.00000

 k-point    53 :      -0.4545    0.3636    0.1818
  band No.  band energies     occupation 
      1       2.0490      2.00000
      2       9.2070      2.00000
      3      10.0606      0.92743
      4      12.2637      0.00000
      5      22.4564      0.00000
      6      23.0302      0.00000

 k-point    54 :      -0.3636    0.3636    0.1818
  band No.  band energies     occupation 
      1       4.1190      2.00000
      2       6.6715      2.00000
      3       9.9931      1.61174
      4      11.0812      0.00000
      5      22.9213      0.00000
      6      24.2096      0.00000

 k-point    55 :      -0.3636    0.4545    0.1818
  band No.  band energies     occupation 
      1       4.7997      2.00000
      2       8.1630      2.00000
      3       8.6054      2.00000
      4       9.7350      1.99999
      5      21.8876      0.00000
      6      22.7302      0.00000

 k-point    56 :      -0.2727    0.4545    0.1818
  band No.  band energies     occupation 
      1       6.2629      2.00000
      2       6.7943      2.00000
      3       7.7322      2.00000
      4       9.9340      1.91061
      5      22.8509      0.00000
      6      25.4912      0.00000


--------------------------------------------------------------------------------------------------------


 soft charge-density along one line, spin component           1
         0         1         2         3         4         5         6         7         8         9
 total charge-density along one line
 
 pseudopotential strength for first ion, spin component:           1
 17.965  -0.003   0.000   0.000   0.000  -0.000  -0.000  -0.000
 -0.003   0.005  -0.000  -0.000  -0.000   0.000   0.000   0.000
  0.000  -0.000   4.096  -0.000  -0.000  -0.006   0.000   0.000
  0.000  -0.000  -0.000   4.096  -0.000   0.000  -0.006   0.000
  0.000  -0.000  -0.000  -0.000   4.096   0.000   0.000  -0.006
 -0.000   0.000  -0.006   0.000   0.000   0.005  -0.000  -0.000
 -0.000   0.000   0.000  -0.006   0.000  -0.000   0.005  -0.000
 -0.000   0.000   0.000   0.000  -0.006  -0.000  -0.000   0.005
 total augmentation occupancy for first ion, spin component:           1
  1.752  -0.278   0.000   0.000   0.000   0.000   0.000   0.000
 -0.278   1.125   0.000   0.000   0.000   0.000   0.000   0.000
  0.000   0.000   0.761  -0.000  -0.000  -0.495   0.000   0.000
  0.000   0.000  -0.000   0.761   0.000   0.000  -0.495  -0.000
  0.000   0.000  -0.000   0.000   0.761   0.000  -0.000  -0.495
  0.000   0.000  -0.495   0.000   0.000   0.415  -0.000  -0.000
  0.000   0.000   0.000  -0.495  -0.000  -0.000   0.415   0.000
  0.000   0.000   0.000  -0.000  -0.495  -0.000   0.000   0.415


------------------------ aborting loop because EDIFF is reached ----------------------------------------


    CHARGE:  cpu time      0.0023: real time      0.0023
    FORLOC:  cpu time      0.0003: real time      0.0003
    FORNL :  cpu time      0.0028: real time      0.0028
    STRESS:  cpu time      0.0169: real time      0.0169
    FORCOR:  cpu time      0.0043: real time      0.0043
    FORHAR:  cpu time      0.0009: real time      0.0009
    MIXING:  cpu time      0.0003: real time      0.0003
    OFIELD:  cpu time      0.0000: real time      0.0000

  FORCE on cell =-STRESS in cart. coord.  units (eV):
  Direction    XX          YY          ZZ          XY          YZ          ZX
  --------------------------------------------------------------------------------------
  Alpha Z     2.32986     2.32986     2.32986
  Ewald     -45.53618   -45.53618   -45.53618     0.00000     0.00000    -0.00000
  Hartree     0.14720     0.14720     0.14720     0.00000     0.00000     0.00000
  E(xc)     -12.71409   -12.71409   -12.71409     0.00000     0.00000     0.00000
  Local      -5.02855    -5.02855    -5.02855     0.00002     0.00002     0.00002
  n-local    39.22890    37.14060    39.19610    -0.70124     0.67581     1.01035
  augment    -6.28510    -6.28510    -6.28510    -0.00002    -0.00002    -0.00002
  Kinetic    20.91726    38.84087    25.90750    10.45064    -8.54199   -15.27790
  Fock        0.00000     0.00000     0.00000     0.00000     0.00000     0.00000
  -------------------------------------------------------------------------------------
  Total      -0.00978    -0.00978    -0.00978     0.00000     0.00000    -0.00000
  in kB      -1.08460    -1.08460    -1.08460     0.00000     0.00000    -0.00000
  external pressure =       -1.08 kB  Pullay stress =        0.00 kB


 VOLUME and BASIS-vectors are now :
 -----------------------------------------------------------------------------
  energy-cutoff  :      240.00
  volume of cell :       14.45
      direct lattice vectors                 reciprocal lattice vectors
     1.933145444  1.933145444  0.000000000     0.258645826  0.258645826 -0.258645826
     0.000000000  1.933145444  1.933145444    -0.258645826  0.258645826  0.258645826
     1.933145444  0.000000000  1.933145444     0.258645826 -0.258645826  0.258645826

  length of vectors
     2.733880504  2.733880504  2.733880504     0.447987712  0.447987712  0.447987712


 FORCES acting on ions
    electron-ion (+dipol)            ewald-force                    non-local-force                 convergence-correction
 -----------------------------------------------------------------------------------------------
   0.130E-14 0.860E-15 -.575E-15   0.339E-15 0.419E-16 0.326E-17   0.366E-23 -.127E-22 0.697E-23   -.695E-16 -.485E-16 0.641E-16
 -----------------------------------------------------------------------------------------------
   0.130E-14 0.860E-15 -.575E-15   0.339E-15 0.419E-16 0.326E-17   0.366E-23 -.127E-22 0.697E-23   -.695E-16 -.485E-16 0.641E-16
 
 
 POSITION                                       TOTAL-FORCE (eV/Angst)
 -----------------------------------------------------------------------------------
      0.00000      0.00000      0.00000         0.000000     -0.000000     -0.000000
 -----------------------------------------------------------------------------------
    total drift:                                0.000000      0.000000     -0.000000


--------------------------------------------------------------------------------------------------------



  FREE ENERGIE OF THE ION-ELECTRON SYSTEM (eV)
  ---------------------------------------------------
  free  energy   TOTEN  =        -4.88371091 eV

  energy  without entropy=       -4.88098100  energy(sigma->0) =       -4.88234595
 
 d Force = 0.0000000E+00[ 0.000E+00, 0.000E+00]  d Energy = 0.6546159E-04-0.655E-04
 d Force = 0.0000000E+00[ 0.000E+00, 0.000E+00]  d Ewald  = 0.1848053E+00-0.185E+00


--------------------------------------------------------------------------------------------------------


    POTLOK:  cpu time      0.0054: real time      0.0054


--------------------------------------------------------------------------------------------------------




--------------------------------------------------------------------------------------------------------


  
 reached required accuracy - stopping structural energy minimisation
 writing wavefunctions
     LOOP+:  cpu time      0.1165: real time      0.1213
    4ORBIT:  cpu time      0.0000: real time      0.0000

 total amount of memory used by VASP MPI-rank0    32613. kBytes
=======================================================================

   base      :      30000. kBytes
   nonl-proj :        518. kBytes
   fftplans  :        504. kBytes
   grid      :        771. kBytes
   one-center:          3. kBytes
   wavefun   :        817. kBytes
 
  
  
 General timing and accounting informations for this job:
 ========================================================
  
                  Total CPU time used (sec):        0.925
                            User time (sec):        0.824
                          System time (sec):        0.101
                         Elapsed time (sec):        1.652
  
                   Maximum memory used (kb):       71824.
                   Average memory used (kb):          N/A
  
                          Minor page faults:        18805
                          Major page faults:            0
                 Voluntary context switches:          778
