 ----------------------------------------------------
    OOO  PPPP  EEEEE N   N M   M PPPP
   O   O P   P E     NN  N MM MM P   P
   O   O PPPP  EEEEE N N N M M M PPPP   -- VERSION
   O   O P     E     N  NN M   M P
    OOO  P     EEEEE N   N M   M P
 ----------------------------------------------------
 running    1 mpi-ranks, with    1 threads/rank
 distrk:  each k-point on    1 cores,    1 groups
 distr:  one band on    1 cores,    1 groups
 vasp.6.3.2 27Jun22 (build Oct 19 2022 15:35:57) complex                        
  
 POSCAR found :  1 types and       1 ions
 scaLAPACK will be used
 LDA part: xc-table for Pade appr. of Perdew
 POSCAR, INCAR and KPOINTS ok, starting setup
 FFT: planning ... GRIDC
 FFT: planning ... GRID_SOFT
 FFT: planning ... GRID
 WAVECAR not read
 entering main loop
       N       E                     dE             d eps       ncg     rms          rms(c)
DAV:   1    -0.338772931831E+01   -0.33877E+01   -0.11280E+03   738   0.277E+02
DAV:   2    -0.485703432351E+01   -0.14693E+01   -0.14261E+01   990   0.253E+01
DAV:   3    -0.486622498359E+01   -0.91907E-02   -0.91895E-02   786   0.201E+00
DAV:   4    -0.486623118734E+01   -0.62037E-05   -0.62050E-05  1014   0.547E-02
DAV:   5    -0.486623119380E+01   -0.64541E-08   -0.54372E-08   714   0.110E-03    0.712E-01
DAV:   6    -0.485500402870E+01    0.11227E-01   -0.41179E-03   756   0.368E-01    0.424E-01
DAV:   7    -0.484875763184E+01    0.62464E-02   -0.88485E-03   696   0.536E-01    0.250E-02
DAV:   8    -0.484874365625E+01    0.13976E-04   -0.34042E-05   642   0.527E-02
   1 F= -.48487437E+01 E0= -.48481093E+01  d E =-.484874E+01
 curvature:   0.00 expect dE= 0.000E+00 dE for cont linesearch  0.000E+00
 trial: gam= 0.00000 g(F)=  0.000E+00 g(S)=  0.641E-01 ort = 0.000E+00 (trialstep = 0.100E+01)
 search vector abs. value=  0.641E-01
 bond charge predicted
       N       E                     dE             d eps       ncg     rms          rms(c)
DAV:   1    -0.490365446509E+01   -0.54897E-01   -0.10990E+00   708   0.562E+00    0.712E-01
DAV:   2    -0.489092138515E+01    0.12733E-01   -0.54591E-03   786   0.563E-01    0.419E-01
DAV:   3    -0.488365775618E+01    0.72636E-02   -0.85182E-03   744   0.511E-01    0.159E-02
DAV:   4    -0.488364544635E+01    0.12310E-04   -0.16096E-05   534   0.399E-02
   2 F= -.48836454E+01 E0= -.48822528E+01  d E =-.349018E-01
 trial-energy change:   -0.034902  1 .order   -0.033502   -0.064148   -0.002855
 step:   1.0408(harm=  1.0466)  dis= 0.00000  next Energy=    -4.883704 (dE=-0.350E-01)
 bond charge predicted
       N       E                     dE             d eps       ncg     rms          rms(c)
DAV:   1    -0.488373032005E+01   -0.72564E-04   -0.18349E-03   732   0.227E-01    0.279E-02
DAV:   2    -0.488371090794E+01    0.19412E-04   -0.85118E-06   354   0.229E-02
   3 F= -.48837109E+01 E0= -.48823460E+01  d E =-.349673E-01
 curvature:  -0.52 expect dE=-0.713E-05 dE for cont linesearch -0.713E-05
 trial: gam=-0.01448 g(F)=  0.000E+00 g(S)=  0.138E-04 ort = 0.942E-03 (trialstep = 0.101E+01)
 search vector abs. value=  0.309E-08
 reached required accuracy - stopping structural energy minimisation
 writing wavefunctions
