<?xml version="1.0" encoding="ISO-8859-1"?>
<modeling>
 <generator>
  <i name="program" type="string">vasp </i>
  <i name="version" type="string">6.3.2  </i>
  <i name="subversion" type="string">27Jun22 (build Oct 19 2022 15:35:57) complex                          parallel </i>
  <i name="platform" type="string">LinuxIFC </i>
  <i name="date" type="string">2023 09 18 </i>
  <i name="time" type="string">23:19:06 </i>
 </generator>
 <incar>
  <i type="string" name="SYSTEM">fcc Si</i>
  <i type="int" name="ISTART">     0</i>
  <i type="int" name="ICHARG">     2</i>
  <i type="int" name="IBRION">     2</i>
  <i name="EDIFF">     -0.00010000</i>
  <i type="int" name="NSW">    20</i>
  <i type="int" name="ISIF">     7</i>
  <i name="ENCUT">    240.00000000</i>
  <i type="int" name="ISMEAR">     0</i>
  <i name="SIGMA">      0.10000000</i>
 </incar>
 <primitive_cell>
  <structure name="primitive_cell" >
   <crystal>
    <varray name="basis" >
     <v>       2.00000000       2.00000000       0.00000000 </v>
     <v>       0.00000000       2.00000000       2.00000000 </v>
     <v>       2.00000000       0.00000000       2.00000000 </v>
    </varray>
    <i name="volume">     16.00000000 </i>
    <varray name="rec_basis" >
     <v>       0.25000000       0.25000000      -0.25000000 </v>
     <v>      -0.25000000       0.25000000       0.25000000 </v>
     <v>       0.25000000      -0.25000000       0.25000000 </v>
    </varray>
   </crystal>
   <varray name="positions" >
    <v>       0.00000000       0.00000000       0.00000000 </v>
   </varray>
  </structure>
  <varray name="primitive_index" >
   <v type="int" >        1 </v>
  </varray>
 </primitive_cell>
 <kpoints>
  <generation param="Monkhorst-Pack">
   <v type="int" name="divisions">      11       11       11 </v>
   <v name="usershift">      0.00000000       0.00000000       0.00000000 </v>
   <v name="genvec1">      0.09090909       0.00000000       0.00000000 </v>
   <v name="genvec2">      0.00000000       0.09090909       0.00000000 </v>
   <v name="genvec3">      0.00000000       0.00000000       0.09090909 </v>
   <v name="shift">      0.00000000       0.00000000       0.00000000 </v>
  </generation>
  <varray name="kpointlist" >
   <v>       0.00000000       0.00000000       0.00000000 </v>
   <v>       0.09090909       0.00000000       0.00000000 </v>
   <v>       0.18181818       0.00000000       0.00000000 </v>
   <v>       0.27272727       0.00000000       0.00000000 </v>
   <v>       0.36363636       0.00000000       0.00000000 </v>
   <v>       0.45454545       0.00000000       0.00000000 </v>
   <v>       0.09090909       0.09090909       0.00000000 </v>
   <v>       0.18181818       0.09090909       0.00000000 </v>
   <v>       0.27272727       0.09090909       0.00000000 </v>
   <v>       0.36363636       0.09090909       0.00000000 </v>
   <v>       0.45454545       0.09090909       0.00000000 </v>
   <v>      -0.45454545       0.09090909       0.00000000 </v>
   <v>      -0.36363636       0.09090909       0.00000000 </v>
   <v>      -0.27272727       0.09090909       0.00000000 </v>
   <v>      -0.18181818       0.09090909       0.00000000 </v>
   <v>      -0.09090909       0.09090909       0.00000000 </v>
   <v>       0.18181818       0.18181818       0.00000000 </v>
   <v>       0.27272727       0.18181818       0.00000000 </v>
   <v>       0.36363636       0.18181818       0.00000000 </v>
   <v>       0.45454545       0.18181818       0.00000000 </v>
   <v>      -0.45454545       0.18181818       0.00000000 </v>
   <v>      -0.36363636       0.18181818       0.00000000 </v>
   <v>      -0.27272727       0.18181818       0.00000000 </v>
   <v>      -0.18181818       0.18181818       0.00000000 </v>
   <v>       0.27272727       0.27272727       0.00000000 </v>
   <v>       0.36363636       0.27272727       0.00000000 </v>
   <v>       0.45454545       0.27272727       0.00000000 </v>
   <v>      -0.45454545       0.27272727       0.00000000 </v>
   <v>      -0.36363636       0.27272727       0.00000000 </v>
   <v>      -0.27272727       0.27272727       0.00000000 </v>
   <v>       0.36363636       0.36363636       0.00000000 </v>
   <v>       0.45454545       0.36363636       0.00000000 </v>
   <v>      -0.45454545       0.36363636       0.00000000 </v>
   <v>      -0.36363636       0.36363636       0.00000000 </v>
   <v>       0.45454545       0.45454545       0.00000000 </v>
   <v>      -0.45454545       0.45454545       0.00000000 </v>
   <v>       0.27272727       0.18181818       0.09090909 </v>
   <v>       0.36363636       0.18181818       0.09090909 </v>
   <v>       0.45454545       0.18181818       0.09090909 </v>
   <v>      -0.45454545       0.18181818       0.09090909 </v>
   <v>       0.36363636       0.27272727       0.09090909 </v>
   <v>       0.45454545       0.27272727       0.09090909 </v>
   <v>      -0.45454545       0.27272727       0.09090909 </v>
   <v>      -0.36363636       0.27272727       0.09090909 </v>
   <v>      -0.27272727       0.27272727       0.09090909 </v>
   <v>      -0.18181818       0.27272727       0.09090909 </v>
   <v>       0.45454545       0.36363636       0.09090909 </v>
   <v>      -0.45454545       0.36363636       0.09090909 </v>
   <v>      -0.36363636       0.36363636       0.09090909 </v>
   <v>      -0.27272727       0.36363636       0.09090909 </v>
   <v>      -0.45454545       0.45454545       0.09090909 </v>
   <v>      -0.36363636       0.45454545       0.09090909 </v>
   <v>      -0.45454545       0.36363636       0.18181818 </v>
   <v>      -0.36363636       0.36363636       0.18181818 </v>
   <v>      -0.36363636       0.45454545       0.18181818 </v>
   <v>      -0.27272727       0.45454545       0.18181818 </v>
  </varray>
  <varray name="weights" >
   <v>       0.00075131 </v>
   <v>       0.00601052 </v>
   <v>       0.00601052 </v>
   <v>       0.00601052 </v>
   <v>       0.00601052 </v>
   <v>       0.00601052 </v>
   <v>       0.00450789 </v>
   <v>       0.01803156 </v>
   <v>       0.01803156 </v>
   <v>       0.01803156 </v>
   <v>       0.01803156 </v>
   <v>       0.01803156 </v>
   <v>       0.01803156 </v>
   <v>       0.01803156 </v>
   <v>       0.01803156 </v>
   <v>       0.00901578 </v>
   <v>       0.00450789 </v>
   <v>       0.01803156 </v>
   <v>       0.01803156 </v>
   <v>       0.01803156 </v>
   <v>       0.01803156 </v>
   <v>       0.01803156 </v>
   <v>       0.01803156 </v>
   <v>       0.00901578 </v>
   <v>       0.00450789 </v>
   <v>       0.01803156 </v>
   <v>       0.01803156 </v>
   <v>       0.01803156 </v>
   <v>       0.01803156 </v>
   <v>       0.00901578 </v>
   <v>       0.00450789 </v>
   <v>       0.01803156 </v>
   <v>       0.01803156 </v>
   <v>       0.00901578 </v>
   <v>       0.00450789 </v>
   <v>       0.00901578 </v>
   <v>       0.01803156 </v>
   <v>       0.03606311 </v>
   <v>       0.03606311 </v>
   <v>       0.03606311 </v>
   <v>       0.01803156 </v>
   <v>       0.03606311 </v>
   <v>       0.03606311 </v>
   <v>       0.03606311 </v>
   <v>       0.03606311 </v>
   <v>       0.01803156 </v>
   <v>       0.01803156 </v>
   <v>       0.03606311 </v>
   <v>       0.03606311 </v>
   <v>       0.01803156 </v>
   <v>       0.01803156 </v>
   <v>       0.01803156 </v>
   <v>       0.01803156 </v>
   <v>       0.03606311 </v>
   <v>       0.01803156 </v>
   <v>       0.01803156 </v>
  </varray>
 </kpoints>
 <parameters>
  <separator name="general" >
   <i type="string" name="SYSTEM">fcc Si</i>
   <i type="logical" name="LCOMPAT"> F  </i>
  </separator>
  <separator name="electronic" >
   <i type="string" name="PREC">normal</i>
   <i name="ENMAX">    240.00000000</i>
   <i name="ENAUG">    322.06900000</i>
   <i name="EDIFF">      0.00010000</i>
   <i type="int" name="IALGO">    38</i>
   <i type="int" name="IWAVPR">    11</i>
   <i type="int" name="NBANDS">     6</i>
   <i type="int" name="NBANDSLOW">    -1</i>
   <i type="int" name="NBANDSHIGH">    -1</i>
   <i name="NELECT">      4.00000000</i>
   <i type="int" name="TURBO">     0</i>
   <i type="int" name="IRESTART">     0</i>
   <i type="int" name="NREBOOT">     0</i>
   <i type="int" name="NMIN">     0</i>
   <i name="EREF">      0.00000000</i>
   <separator name="electronic smearing" >
    <i type="int" name="ISMEAR">     0</i>
    <i name="SIGMA">      0.10000000</i>
    <i name="KSPACING">      0.50000000</i>
    <i type="logical" name="KGAMMA"> T  </i>
    <i type="logical" name="KBLOWUP"> T  </i>
   </separator>
   <separator name="electronic projectors" >
    <i type="logical" name="LREAL"> F  </i>
    <v name="ROPT">      0.00000000</v>
    <i type="int" name="LMAXPAW">  -100</i>
    <i type="int" name="LMAXMIX">     2</i>
    <i type="logical" name="NLSPLINE"> F  </i>
   </separator>
   <separator name="electronic startup" >
    <i type="int" name="ISTART">     0</i>
    <i type="int" name="ICHARG">     2</i>
    <i type="int" name="INIWAV">     1</i>
   </separator>
   <separator name="electronic spin" >
    <i type="int" name="ISPIN">     1</i>
    <i type="logical" name="LNONCOLLINEAR"> F  </i>
    <v name="MAGMOM">      1.00000000</v>
    <i name="NUPDOWN">     -1.00000000</i>
    <i type="logical" name="LSORBIT"> F  </i>
    <v name="SAXIS">      0.00000000      0.00000000      1.00000000</v>
    <i type="logical" name="LSPIRAL"> F  </i>
    <v name="QSPIRAL">      0.00000000      0.00000000      0.00000000</v>
    <i type="logical" name="LZEROZ"> F  </i>
   </separator>
   <separator name="electronic exchange-correlation" >
    <i type="logical" name="LASPH"> F  </i>
    <i type="logical" name="LMETAGGA"> F  </i>
   </separator>
   <separator name="electronic convergence" >
    <i type="int" name="NELM">    60</i>
    <i type="int" name="NELMDL">    -5</i>
    <i type="int" name="NELMIN">     2</i>
    <i name="ENINI">    240.00000000</i>
    <separator name="electronic convergence detail" >
     <i type="logical" name="LDIAG"> T  </i>
     <i type="logical" name="LSUBROT"> F  </i>
     <i name="WEIMIN">      0.00100000</i>
     <i name="EBREAK">      0.00000417</i>
     <i name="DEPER">      0.30000000</i>
     <i type="int" name="NRMM">     4</i>
     <i name="TIME">      0.40000000</i>
    </separator>
   </separator>
   <separator name="electronic mixer" >
    <i name="AMIX">      0.40000000</i>
    <i name="BMIX">      1.00000000</i>
    <i name="AMIN">      0.10000000</i>
    <i name="AMIX_MAG">      1.60000000</i>
    <i name="BMIX_MAG">      1.00000000</i>
    <separator name="electronic mixer details" >
     <i type="int" name="IMIX">     4</i>
     <i type="logical" name="MIXFIRST"> F  </i>
     <i type="int" name="MAXMIX">   -45</i>
     <i name="WC">    100.00000000</i>
     <i type="int" name="INIMIX">     1</i>
     <i type="int" name="MIXPRE">     1</i>
     <i type="int" name="MREMOVE">     5</i>
    </separator>
   </separator>
   <separator name="electronic dipolcorrection" >
    <i type="logical" name="LDIPOL"> F  </i>
    <i type="logical" name="LMONO"> F  </i>
    <i type="int" name="IDIPOL">     0</i>
    <i name="EPSILON">      1.00000000</i>
    <v name="DIPOL">   -100.00000000   -100.00000000   -100.00000000</v>
    <i name="EFIELD">      0.00000000</i>
   </separator>
  </separator>
  <separator name="grids" >
   <i type="int" name="NGX">    12</i>
   <i type="int" name="NGY">    12</i>
   <i type="int" name="NGZ">    12</i>
   <i type="int" name="NGXF">    24</i>
   <i type="int" name="NGYF">    24</i>
   <i type="int" name="NGZF">    24</i>
   <i type="logical" name="ADDGRID"> F  </i>
  </separator>
  <separator name="ionic" >
   <i type="int" name="NSW">    20</i>
   <i type="int" name="IBRION">     2</i>
   <i type="int" name="MDALGO">     0</i>
   <i type="int" name="ISIF">     7</i>
   <i name="PSTRESS">      0.00000000</i>
   <i name="EDIFFG">      0.00100000</i>
   <i type="int" name="NFREE">     1</i>
   <i name="POTIM">      0.50000000</i>
   <i name="SMASS">     -3.00000000</i>
   <i name="SCALEE">      1.00000000</i>
  </separator>
  <separator name="ionic md" >
   <i name="TEBEG">      0.00010000</i>
   <i name="TEEND">      0.00010000</i>
   <i type="int" name="NBLOCK">     1</i>
   <i type="int" name="KBLOCK">    20</i>
   <i type="int" name="NPACO">   256</i>
   <i name="APACO">     10.00000000</i>
  </separator>
  <separator name="symmetry" >
   <i type="int" name="ISYM">     2</i>
   <i name="SYMPREC">      0.00001000</i>
  </separator>
  <separator name="dos" >
   <i type="int" name="LORBIT">     0</i>
   <v name="RWIGS">     -1.00000000</v>
   <i type="int" name="NEDOS">   301</i>
   <i name="EMIN">     10.00000000</i>
   <i name="EMAX">    -10.00000000</i>
   <i name="EFERMI">      0.00000000</i>
  </separator>
  <separator name="writing" >
   <i type="int" name="NWRITE">     2</i>
   <i type="logical" name="LWAVE"> T  </i>
   <i type="logical" name="LDOWNSAMPLE"> F  </i>
   <i type="logical" name="LCHARG"> T  </i>
   <i type="logical" name="LPARD"> F  </i>
   <i type="logical" name="LVTOT"> F  </i>
   <i type="logical" name="LVHAR"> F  </i>
   <i type="logical" name="LELF"> F  </i>
   <i type="logical" name="LOPTICS"> F  </i>
   <v name="STM">      0.00000000      0.00000000      0.00000000      0.00000000      0.00000000      0.00000000      0.00000000</v>
  </separator>
  <separator name="performance" >
   <i type="int" name="NPAR">     1</i>
   <i type="int" name="NSIM">     4</i>
   <i type="int" name="NBLK">    -1</i>
   <i type="logical" name="LPLANE"> T  </i>
   <i type="logical" name="LSCALAPACK"> T  </i>
   <i type="logical" name="LSCAAWARE"> F  </i>
   <i type="logical" name="LSCALU"> F  </i>
   <i type="logical" name="LASYNC"> F  </i>
   <i type="logical" name="LORBITALREAL"> F  </i>
  </separator>
  <separator name="miscellaneous" >
   <i type="int" name="IDIOT">     3</i>
   <i type="int" name="PHON_NSTRUCT">    -1</i>
   <i type="logical" name="LMUSIC"> F  </i>
   <v name="POMASS">     28.08500000</v>
   <v name="DARWINR">      0.00000000</v>
   <v name="DARWINV">      1.00000000</v>
   <i type="logical" name="LCORR"> T  </i>
  </separator>
  <i type="logical" name="GGA_COMPAT"> T  </i>
  <i type="logical" name="LBERRY"> F  </i>
  <i type="int" name="ICORELEVEL">     0</i>
  <i type="logical" name="LDAU"> F  </i>
  <i type="int" name="I_CONSTRAINED_M">     0</i>
  <separator name="electronic exchange-correlation" >
   <i type="string" name="GGA">--</i>
   <i type="int" name="VOSKOWN">     0</i>
   <i type="logical" name="LHFCALC"> F  </i>
   <i type="string" name="PRECFOCK"></i>
   <i type="logical" name="LSYMGRAD"> F  </i>
   <i type="logical" name="LHFONE"> F  </i>
   <i type="logical" name="LRHFCALC"> F  </i>
   <i type="logical" name="LTHOMAS"> F  </i>
   <i type="logical" name="LMODELHF"> F  </i>
   <i type="logical" name="LFOCKACE"> F  </i>
   <i name="ENCUT4O">     -1.00000000</i>
   <i type="int" name="EXXOEP">     0</i>
   <i type="int" name="FOURORBIT">     0</i>
   <i name="AEXX">      0.00000000</i>
   <i name="HFALPHA">      0.00000000</i>
   <i name="MCALPHA">      0.00000000</i>
   <i name="ALDAX">      1.00000000</i>
   <i name="AGGAX">      1.00000000</i>
   <i name="ALDAC">      1.00000000</i>
   <i name="AGGAC">      1.00000000</i>
   <i type="int" name="NKREDX">     1</i>
   <i type="int" name="NKREDY">     1</i>
   <i type="int" name="NKREDZ">     1</i>
   <i type="logical" name="SHIFTRED"> F  </i>
   <i type="logical" name="ODDONLY"> F  </i>
   <i type="logical" name="EVENONLY"> F  </i>
   <i type="int" name="LMAXFOCK">     0</i>
   <i type="int" name="NMAXFOCKAE">     0</i>
   <i type="logical" name="LFOCKAEDFT"> F  </i>
   <i name="HFSCREEN">      0.00000000</i>
   <i name="HFSCREENC">      0.00000000</i>
   <i type="int" name="NBANDSGWLOW">     0</i>
  </separator>
  <separator name="vdW DFT" >
   <i type="logical" name="LUSE_VDW"> F  </i>
   <i name="Zab_VDW">     -0.84910000</i>
   <i name="PARAM1">      0.12340000</i>
   <i name="PARAM2">      1.00000000</i>
   <i name="PARAM3">      0.00000000</i>
  </separator>
  <separator name="model GW" >
   <i type="int" name="MODEL_GW">     0</i>
   <i name="MODEL_EPS0">      9.60000000</i>
   <i name="MODEL_ALPHA">      1.00000000</i>
  </separator>
  <separator name="linear response parameters" >
   <i type="logical" name="LEPSILON"> F  </i>
   <i type="logical" name="LRPA"> F  </i>
   <i type="logical" name="LNABLA"> F  </i>
   <i type="logical" name="LVEL"> F  </i>
   <i name="CSHIFT">      0.10000000</i>
   <i name="OMEGAMAX">     -1.00000000</i>
   <i name="DEG_THRESHOLD">      0.00200000</i>
   <i name="RTIME">     -0.10000000</i>
   <i name="WPLASMAI">      0.00000000</i>
   <v name="DFIELD">      0.00000000      0.00000000      0.00000000</v>
   <v name="WPLASMA">      0.00000000      0.00000000      0.00000000      0.00000000      0.00000000      0.00000000      0.00000000      0.00000000      0.00000000</v>
  </separator>
  <separator name="orbital magnetization" >
   <i type="logical" name="NUCIND"> F  </i>
   <v name="MAGPOS">      0.00000000      0.00000000      0.00000000</v>
   <i type="logical" name="LNICSALL"> T  </i>
   <i type="logical" name="ORBITALMAG"> F  </i>
   <i type="logical" name="LMAGBLOCH"> F  </i>
   <i type="logical" name="LCHIMAG"> F  </i>
   <i type="logical" name="LGAUGE"> T  </i>
   <i type="int" name="MAGATOM">     0</i>
   <v name="MAGDIPOL">      0.00000000      0.00000000      0.00000000</v>
   <v name="AVECCONST">      0.00000000      0.00000000      0.00000000</v>
  </separator>
  <separator name="response functions" >
   <i type="logical" name="LFINITE_TEMPERATURE"> F  </i>
   <i type="logical" name="LADDER"> F  </i>
   <i type="logical" name="LRPAFORCE"> F  </i>
   <i type="logical" name="LFXC"> F  </i>
   <i type="logical" name="LHARTREE"> T  </i>
   <i type="int" name="IBSE">     0</i>
   <v type="int" name="KPOINT">    -1     0     0     0</v>
   <i type="logical" name="LTCTC"> F  </i>
   <i type="logical" name="LTCTE"> F  </i>
   <i type="logical" name="LTETE"> F  </i>
   <i type="logical" name="LTRIPLET"> F  </i>
   <i type="logical" name="LFXCEPS"> F  </i>
   <i type="logical" name="LFXHEG"> F  </i>
   <i type="int" name="NATURALO">     2</i>
   <i type="logical" name="LHOLEGF"> F  </i>
   <i type="logical" name="L2ORDER"> F  </i>
   <i type="logical" name="LDMP1"> F  </i>
   <i type="logical" name="LMP2LT"> F  </i>
   <i type="logical" name="LSMP2LT"> F  </i>
   <i type="logical" name="LGWLF"> F  </i>
   <i name="ENCUTGW">     -2.00000000</i>
   <i name="ENCUTGWSOFT">     -2.00000000</i>
   <i name="ENCUTLF">     -1.00000000</i>
   <i type="logical" name="LESF_SPLINES"> F  </i>
   <i type="int" name="LMAXMP2">    -1</i>
   <i name="SCISSOR">      0.00000000</i>
   <i type="int" name="NOMEGA">     0</i>
   <i type="int" name="NOMEGAR">     0</i>
   <i type="int" name="NBANDSGW">    -1</i>
   <i type="int" name="NBANDSO">    -1</i>
   <i type="int" name="NBANDSV">    -1</i>
   <i type="int" name="NELMGW">     1</i>
   <i type="int" name="NELMHF">     1</i>
   <i type="int" name="DIM">     3</i>
   <i type="int" name="IESPILON">     4</i>
   <i type="int" name="ANTIRES">     0</i>
   <i name="OMEGAMAX">    -30.00000000</i>
   <i name="OMEGAMIN">    -30.00000000</i>
   <i name="OMEGATL">   -200.00000000</i>
   <i type="int" name="OMEGAGRID">     0</i>
   <i name="CSHIFT">     -0.10000000</i>
   <i type="logical" name="LSELFENERGY"> F  </i>
   <i type="logical" name="LSPECTRAL"> F  </i>
   <i type="logical" name="LSPECTRALGW"> F  </i>
   <i type="logical" name="LSINGLES"> F  </i>
   <i type="logical" name="LFERMIGW"> F  </i>
   <i type="logical" name="ODDONLYGW"> F  </i>
   <i type="logical" name="EVENONLYGW"> F  </i>
   <i type="int" name="NKREDLFX">     1</i>
   <i type="int" name="NKREDLFY">     1</i>
   <i type="int" name="NKREDLFZ">     1</i>
   <i type="int" name="MAXMEM">  2800</i>
   <i type="int" name="TELESCOPE">     0</i>
   <i type="int" name="NTAUPAR">    -1</i>
   <i type="int" name="NOMEGAPAR">    -1</i>
   <i name="DAMP_NEWTON">      0.80000001</i>
   <i name="LAMBDA">      1.00000000</i>
  </separator>
  <separator name="External order field" >
   <i name="OFIELD_KAPPA">      0.00000000</i>
   <v name="OFIELD_K">      0.00000000      0.00000000      0.00000000</v>
   <i name="OFIELD_Q6_NEAR">      0.00000000</i>
   <i name="OFIELD_Q6_FAR">      0.00000000</i>
   <i name="OFIELD_A">      0.00000000</i>
  </separator>
  <separator name="optional k-points parameters" >
   <i type="int" name="KPOINTS_OPT_MODE">     1</i>
   <i type="logical" name="LKPOINTS_OPT"> F  </i>
  </separator>
 </parameters>
 <atominfo>
  <atoms>       1 </atoms>
  <types>       1 </types>
  <array name="atoms" >
   <dimension dim="1">ion</dimension>
   <field type="string">element</field>
   <field type="int">atomtype</field>
   <set>
    <rc><c>Si</c><c>   1</c></rc>
   </set>
  </array>
  <array name="atomtypes" >
   <dimension dim="1">type</dimension>
   <field type="int">atomspertype</field>
   <field type="string">element</field>
   <field>mass</field>
   <field>valence</field>
   <field type="string">pseudopotential</field>
   <set>
    <rc><c>   1</c><c>Si</c><c>     28.08500000</c><c>      4.00000000</c><c> PAW_PBE Si 05Jan2001                   </c></rc>
   </set>
  </array>
 </atominfo>
 <structure name="initialpos" >
  <crystal>
   <varray name="basis" >
    <v>       2.00000000       2.00000000       0.00000000 </v>
    <v>       0.00000000       2.00000000       2.00000000 </v>
    <v>       2.00000000       0.00000000       2.00000000 </v>
   </varray>
   <i name="volume">     16.00000000 </i>
   <varray name="rec_basis" >
    <v>       0.25000000       0.25000000      -0.25000000 </v>
    <v>      -0.25000000       0.25000000       0.25000000 </v>
    <v>       0.25000000      -0.25000000       0.25000000 </v>
   </varray>
  </crystal>
  <varray name="positions" >
   <v>       0.00000000       0.00000000       0.00000000 </v>
  </varray>
 </structure>
 <calculation>
  <scstep>
   <time name="dav">    0.04    0.04</time>
   <time name="total">    0.05    0.05</time>
   <energy>
    <i name="alphaZ">      2.10394240 </i>
    <i name="ewald">   -132.04207609 </i>
    <i name="hartreedc">     -0.84728143 </i>
    <i name="XCdc">     -9.06445568 </i>
    <i name="pawpsdc">     32.97760406 </i>
    <i name="pawaedc">    -15.38426339 </i>
    <i name="eentropy">     -0.00203469 </i>
    <i name="bandstr">     15.81005893 </i>
    <i name="atom">    103.06077658 </i>
    <i name="e_fr_energy">     -3.38772932 </i>
    <i name="e_wo_entrp">     -3.38569463 </i>
    <i name="e_0_energy">     -3.38671197 </i>
   </energy>
  </scstep>
  <scstep>
   <time name="dav">    0.05    0.05</time>
   <time name="total">    0.05    0.06</time>
   <energy>
    <i name="e_fr_energy">     -4.85703432 </i>
    <i name="e_wo_entrp">     -4.85550073 </i>
    <i name="e_0_energy">     -4.85626752 </i>
   </energy>
  </scstep>
  <scstep>
   <time name="dav">    0.04    0.04</time>
   <time name="total">    0.04    0.04</time>
   <energy>
    <i name="e_fr_energy">     -4.86622498 </i>
    <i name="e_wo_entrp">     -4.86467053 </i>
    <i name="e_0_energy">     -4.86544775 </i>
   </energy>
  </scstep>
  <scstep>
   <time name="dav">    0.05    0.05</time>
   <time name="total">    0.05    0.05</time>
   <energy>
    <i name="e_fr_energy">     -4.86623119 </i>
    <i name="e_wo_entrp">     -4.86467675 </i>
    <i name="e_0_energy">     -4.86545397 </i>
   </energy>
  </scstep>
  <scstep>
   <time name="dav">    0.04    0.04</time>
   <time name="total">    0.04    0.04</time>
   <energy>
    <i name="e_fr_energy">     -4.86623119 </i>
    <i name="e_wo_entrp">     -4.86467676 </i>
    <i name="e_0_energy">     -4.86545398 </i>
   </energy>
  </scstep>
  <scstep>
   <time name="dav">    0.04    0.04</time>
   <time name="total">    0.05    0.05</time>
   <energy>
    <i name="e_fr_energy">     -4.85500403 </i>
    <i name="e_wo_entrp">     -4.85358745 </i>
    <i name="e_0_energy">     -4.85429574 </i>
   </energy>
  </scstep>
  <scstep>
   <time name="dav">    0.04    0.04</time>
   <time name="total">    0.04    0.05</time>
   <energy>
    <i name="e_fr_energy">     -4.84875763 </i>
    <i name="e_wo_entrp">     -4.84749373 </i>
    <i name="e_0_energy">     -4.84812568 </i>
   </energy>
  </scstep>
  <scstep>
   <time name="dav">    0.04    0.04</time>
   <time name="total">    0.05    0.05</time>
   <energy>
    <i name="alphaZ">      2.10394240 </i>
    <i name="ewald">   -132.04207609 </i>
    <i name="hartreedc">     -0.63587035 </i>
    <i name="XCdc">     -9.03113335 </i>
    <i name="pawpsdc">     33.63969986 </i>
    <i name="pawaedc">    -16.04303205 </i>
    <i name="eentropy">     -0.00126878 </i>
    <i name="bandstr">     14.10021813 </i>
    <i name="atom">    103.06077658 </i>
    <i name="e_fr_energy">     -4.84874366 </i>
    <i name="e_wo_entrp">     -4.84747487 </i>
    <i name="e_0_energy">     -4.84810926 </i>
   </energy>
  </scstep>
  <structure>
   <crystal>
    <varray name="basis" >
     <v>       2.00000000       2.00000000       0.00000000 </v>
     <v>       0.00000000       2.00000000       2.00000000 </v>
     <v>       2.00000000       0.00000000       2.00000000 </v>
    </varray>
    <i name="volume">     16.00000000 </i>
    <varray name="rec_basis" >
     <v>       0.25000000       0.25000000      -0.25000000 </v>
     <v>      -0.25000000       0.25000000       0.25000000 </v>
     <v>       0.25000000      -0.25000000       0.25000000 </v>
    </varray>
   </crystal>
   <varray name="positions" >
    <v>       0.00000000       0.00000000       0.00000000 </v>
   </varray>
  </structure>
  <varray name="forces" >
   <v>       0.00000000       0.00000000       0.00000000 </v>
  </varray>
  <varray name="stress" >
   <v>     -66.66636839       0.00000000       0.00000000 </v>
   <v>       0.00000000     -66.66636839       0.00000000 </v>
   <v>       0.00000000      -0.00000000     -66.66636839 </v>
  </varray>
  <energy>
   <i name="e_fr_energy">     -4.84874366 </i>
   <i name="e_wo_entrp">     -4.84747487 </i>
   <i name="e_0_energy">     -4.84810926 </i>
  </energy>
  <time name="totalsc">    0.43    0.45</time>
 </calculation>
 <calculation>
  <scstep>
   <time name="dav">    0.04    0.04</time>
   <time name="total">    0.05    0.05</time>
   <energy>
    <i name="alphaZ">      2.32041945 </i>
    <i name="ewald">   -136.42372207 </i>
    <i name="hartreedc">     -0.65725798 </i>
    <i name="XCdc">     -8.78873964 </i>
    <i name="pawpsdc">     33.65383239 </i>
    <i name="pawaedc">    -16.05804950 </i>
    <i name="eentropy">     -0.00270060 </i>
    <i name="bandstr">     17.99178690 </i>
    <i name="atom">    103.06077658 </i>
    <i name="e_fr_energy">     -4.90365447 </i>
    <i name="e_wo_entrp">     -4.90095387 </i>
    <i name="e_0_energy">     -4.90230417 </i>
   </energy>
  </scstep>
  <scstep>
   <time name="dav">    0.04    0.04</time>
   <time name="total">    0.05    0.05</time>
   <energy>
    <i name="e_fr_energy">     -4.89092139 </i>
    <i name="e_wo_entrp">     -4.88819774 </i>
    <i name="e_0_energy">     -4.88955956 </i>
   </energy>
  </scstep>
  <scstep>
   <time name="dav">    0.04    0.04</time>
   <time name="total">    0.04    0.04</time>
   <energy>
    <i name="e_fr_energy">     -4.88365776 </i>
    <i name="e_wo_entrp">     -4.88087176 </i>
    <i name="e_0_energy">     -4.88226476 </i>
   </energy>
  </scstep>
  <scstep>
   <time name="dav">    0.03    0.03</time>
   <time name="total">    0.03    0.03</time>
   <energy>
    <i name="alphaZ">      2.32041945 </i>
    <i name="ewald">   -136.42372207 </i>
    <i name="hartreedc">     -0.44787672 </i>
    <i name="XCdc">     -8.75663888 </i>
    <i name="pawpsdc">     34.04751502 </i>
    <i name="pawaedc">    -16.46146416 </i>
    <i name="eentropy">     -0.00278523 </i>
    <i name="bandstr">     17.78013057 </i>
    <i name="atom">    103.06077658 </i>
    <i name="e_fr_energy">     -4.88364545 </i>
    <i name="e_wo_entrp">     -4.88086021 </i>
    <i name="e_0_energy">     -4.88225283 </i>
   </energy>
  </scstep>
  <structure>
   <crystal>
    <varray name="basis" >
     <v>       1.93576416       1.93576416       0.00000000 </v>
     <v>       0.00000000       1.93576416       1.93576416 </v>
     <v>       1.93576416       0.00000000       1.93576416 </v>
    </varray>
    <i name="volume">     14.50732472 </i>
    <varray name="rec_basis" >
     <v>       0.25829593       0.25829593      -0.25829593 </v>
     <v>      -0.25829593       0.25829593       0.25829593 </v>
     <v>       0.25829593      -0.25829593       0.25829593 </v>
    </varray>
   </crystal>
   <varray name="positions" >
    <v>       0.00000000       0.00000000       0.00000000 </v>
   </varray>
  </structure>
  <varray name="forces" >
   <v>       0.00000000       0.00000000       0.00000000 </v>
  </varray>
  <varray name="stress" >
   <v>      -3.27255894       0.00000000       0.00000000 </v>
   <v>       0.00000000      -3.27255894      -0.00000000 </v>
   <v>       0.00000000      -0.00000000      -3.27255894 </v>
  </varray>
  <energy>
   <i name="e_fr_energy">     -4.88364545 </i>
   <i name="e_wo_entrp">     -4.88086021 </i>
   <i name="e_0_energy">     -4.88225283 </i>
  </energy>
  <time name="totalsc">    0.21    0.21</time>
 </calculation>
 <calculation>
  <scstep>
   <time name="dav">    0.04    0.04</time>
   <time name="total">    0.04    0.04</time>
   <energy>
    <i name="alphaZ">      2.32986224 </i>
    <i name="ewald">   -136.60852734 </i>
    <i name="hartreedc">     -0.44885922 </i>
    <i name="XCdc">     -8.74507722 </i>
    <i name="pawpsdc">     34.10888541 </i>
    <i name="pawaedc">    -16.52652159 </i>
    <i name="eentropy">     -0.00272837 </i>
    <i name="bandstr">     17.94845919 </i>
    <i name="atom">    103.06077658 </i>
    <i name="e_fr_energy">     -4.88373032 </i>
    <i name="e_wo_entrp">     -4.88100195 </i>
    <i name="e_0_energy">     -4.88236614 </i>
   </energy>
  </scstep>
  <scstep>
   <time name="dav">    0.02    0.02</time>
   <time name="total">    0.03    0.03</time>
   <energy>
    <i name="alphaZ">      2.32986224 </i>
    <i name="ewald">   -136.60852734 </i>
    <i name="hartreedc">     -0.44607410 </i>
    <i name="XCdc">     -8.74459972 </i>
    <i name="pawpsdc">     34.11184676 </i>
    <i name="pawaedc">    -16.52946077 </i>
    <i name="eentropy">     -0.00272991 </i>
    <i name="bandstr">     17.94519536 </i>
    <i name="atom">    103.06077658 </i>
    <i name="e_fr_energy">     -4.88371091 </i>
    <i name="e_wo_entrp">     -4.88098100 </i>
    <i name="e_0_energy">     -4.88234595 </i>
   </energy>
  </scstep>
  <structure>
   <crystal>
    <varray name="basis" >
     <v>       1.93314544       1.93314544       0.00000000 </v>
     <v>       0.00000000       1.93314544       1.93314544 </v>
     <v>       1.93314544       0.00000000       1.93314544 </v>
    </varray>
    <i name="volume">     14.44852741 </i>
    <varray name="rec_basis" >
     <v>       0.25864583       0.25864583      -0.25864583 </v>
     <v>      -0.25864583       0.25864583       0.25864583 </v>
     <v>       0.25864583      -0.25864583       0.25864583 </v>
    </varray>
   </crystal>
   <varray name="positions" >
    <v>       0.00000000       0.00000000       0.00000000 </v>
   </varray>
  </structure>
  <varray name="forces" >
   <v>       0.00000000      -0.00000000      -0.00000000 </v>
  </varray>
  <varray name="stress" >
   <v>      -1.08459537       0.00000000      -0.00000000 </v>
   <v>       0.00000000      -1.08459537      -0.00000000 </v>
   <v>      -0.00000000       0.00000000      -1.08459537 </v>
  </varray>
  <energy>
   <i name="e_fr_energy">     -4.88371091 </i>
   <i name="e_wo_entrp">     -4.88098100 </i>
   <i name="e_0_energy">     -4.88234595 </i>
  </energy>
  <time name="totalsc">    0.12    0.12</time>
  <eigenvalues>
   <array>
    <dimension dim="1">band</dimension>
    <dimension dim="2">kpoint</dimension>
    <dimension dim="3">spin</dimension>
    <field>eigene</field>
    <field>occ</field>
    <set>
     <set comment="spin 1">
      <set comment="kpoint 1">
       <r>   -4.2770    1.0000 </r>
       <r>   21.3504    0.0000 </r>
       <r>   21.3505    0.0000 </r>
       <r>   21.3505    0.0000 </r>
       <r>   22.2067    0.0000 </r>
       <r>   22.2067    0.0000 </r>
      </set>
      <set comment="kpoint 2">
       <r>   -4.0361    1.0000 </r>
       <r>   18.2030    0.0000 </r>
       <r>   20.4046    0.0000 </r>
       <r>   20.4046    0.0000 </r>
       <r>   23.3980    0.0000 </r>
       <r>   23.4352    0.0000 </r>
      </set>
      <set comment="kpoint 3">
       <r>   -3.3149    1.0000 </r>
       <r>   14.3155    0.0000 </r>
       <r>   19.4985    0.0000 </r>
       <r>   19.4986    0.0000 </r>
       <r>   23.4633    0.0000 </r>
       <r>   24.4486    0.0000 </r>
      </set>
      <set comment="kpoint 4">
       <r>   -2.1194    1.0000 </r>
       <r>   10.6093    0.0000 </r>
       <r>   18.9516    0.0000 </r>
       <r>   18.9516    0.0000 </r>
       <r>   23.3337    0.0000 </r>
       <r>   23.3597    0.0000 </r>
      </set>
      <set comment="kpoint 5">
       <r>   -0.4597    1.0000 </r>
       <r>    7.2393    1.0000 </r>
       <r>   18.7401    0.0000 </r>
       <r>   18.7401    0.0000 </r>
       <r>   22.0237    0.0000 </r>
       <r>   22.0238    0.0000 </r>
      </set>
      <set comment="kpoint 6">
       <r>    1.6375    1.0000 </r>
       <r>    4.2817    1.0000 </r>
       <r>   18.7530    0.0000 </r>
       <r>   18.7530    0.0000 </r>
       <r>   21.2127    0.0000 </r>
       <r>   21.2128    0.0000 </r>
      </set>
      <set comment="kpoint 7">
       <r>   -3.9559    1.0000 </r>
       <r>   19.0295    0.0000 </r>
       <r>   19.0295    0.0000 </r>
       <r>   20.6246    0.0000 </r>
       <r>   20.6926    0.0000 </r>
       <r>   24.9276    0.0000 </r>
      </set>
      <set comment="kpoint 8">
       <r>   -3.3948    1.0000 </r>
       <r>   15.7530    0.0000 </r>
       <r>   17.9924    0.0000 </r>
       <r>   19.7322    0.0000 </r>
       <r>   21.5516    0.0000 </r>
       <r>   24.2550    0.0000 </r>
      </set>
      <set comment="kpoint 9">
       <r>   -2.3576    1.0000 </r>
       <r>   11.9969    0.0000 </r>
       <r>   17.3554    0.0000 </r>
       <r>   18.9343    0.0000 </r>
       <r>   21.1724    0.0000 </r>
       <r>   24.5752    0.0000 </r>
      </set>
      <set comment="kpoint 10">
       <r>   -0.8525    1.0000 </r>
       <r>    8.5176    1.0000 </r>
       <r>   17.1249    0.0000 </r>
       <r>   18.1399    0.0000 </r>
       <r>   20.2085    0.0000 </r>
       <r>   24.4130    0.0000 </r>
      </set>
      <set comment="kpoint 11">
       <r>    1.1049    1.0000 </r>
       <r>    5.4176    1.0000 </r>
       <r>   17.2183    0.0000 </r>
       <r>   17.2944    0.0000 </r>
       <r>   20.0544    0.0000 </r>
       <r>   23.2214    0.0000 </r>
      </set>
      <set comment="kpoint 12">
       <r>    2.5849    1.0000 </r>
       <r>    3.6508    1.0000 </r>
       <r>   16.4429    0.0000 </r>
       <r>   17.8401    0.0000 </r>
       <r>   20.5713    0.0000 </r>
       <r>   22.4238    0.0000 </r>
      </set>
      <set comment="kpoint 13">
       <r>    0.4039    1.0000 </r>
       <r>    6.4038    1.0000 </r>
       <r>   16.0005    0.0000 </r>
       <r>   18.6994    0.0000 </r>
       <r>   21.5851    0.0000 </r>
       <r>   22.1224    0.0000 </r>
      </set>
      <set comment="kpoint 14">
       <r>   -1.4055    1.0000 </r>
       <r>    9.6370    1.0000 </r>
       <r>   15.9552    0.0000 </r>
       <r>   19.7260    0.0000 </r>
       <r>   22.4293    0.0000 </r>
       <r>   23.0082    0.0000 </r>
      </set>
      <set comment="kpoint 15">
       <r>   -2.7559    1.0000 </r>
       <r>   13.2202    0.0000 </r>
       <r>   16.3262    0.0000 </r>
       <r>   20.7161    0.0000 </r>
       <r>   23.2530    0.0000 </r>
       <r>   24.4159    0.0000 </r>
      </set>
      <set comment="kpoint 16">
       <r>   -3.6351    1.0000 </r>
       <r>   16.8584    0.0000 </r>
       <r>   17.2671    0.0000 </r>
       <r>   21.4320    0.0000 </r>
       <r>   22.8303    0.0000 </r>
       <r>   24.0216    0.0000 </r>
      </set>
      <set comment="kpoint 17">
       <r>   -2.9948    1.0000 </r>
       <r>   16.8241    0.0000 </r>
       <r>   16.8241    0.0000 </r>
       <r>   18.4411    0.0000 </r>
       <r>   18.6967    0.0000 </r>
       <r>   21.7309    0.0000 </r>
      </set>
      <set comment="kpoint 18">
       <r>   -2.1184    1.0000 </r>
       <r>   13.7413    0.0000 </r>
       <r>   16.0541    0.0000 </r>
       <r>   17.2811    0.0000 </r>
       <r>   18.7605    0.0000 </r>
       <r>   21.2542    0.0000 </r>
      </set>
      <set comment="kpoint 19">
       <r>   -0.7720    1.0000 </r>
       <r>   10.2165    0.0108 </r>
       <r>   15.6981    0.0000 </r>
       <r>   15.7315    0.0000 </r>
       <r>   18.4093    0.0000 </r>
       <r>   23.4169    0.0000 </r>
      </set>
      <set comment="kpoint 20">
       <r>    1.0329    1.0000 </r>
       <r>    7.0050    1.0000 </r>
       <r>   14.3315    0.0000 </r>
       <r>   15.7573    0.0000 </r>
       <r>   18.4364    0.0000 </r>
       <r>   25.9835    0.0000 </r>
      </set>
      <set comment="kpoint 21">
       <r>    3.2112    1.0000 </r>
       <r>    4.2577    1.0000 </r>
       <r>   13.2812    0.0000 </r>
       <r>   16.2260    0.0000 </r>
       <r>   18.9432    0.0000 </r>
       <r>   25.1561    0.0000 </r>
      </set>
      <set comment="kpoint 22">
       <r>    1.7310    1.0000 </r>
       <r>    6.0186    1.0000 </r>
       <r>   12.6440    0.0000 </r>
       <r>   17.0922    0.0000 </r>
       <r>   19.9028    0.0000 </r>
       <r>   24.6047    0.0000 </r>
      </set>
      <set comment="kpoint 23">
       <r>   -0.2207    1.0000 </r>
       <r>    9.0845    1.0000 </r>
       <r>   12.4514    0.0000 </r>
       <r>   18.3183    0.0000 </r>
       <r>   21.2795    0.0000 </r>
       <r>   24.4834    0.0000 </r>
      </set>
      <set comment="kpoint 24">
       <r>   -1.7219    1.0000 </r>
       <r>   12.2021    0.0000 </r>
       <r>   13.0110    0.0000 </r>
       <r>   19.7882    0.0000 </r>
       <r>   22.9934    0.0000 </r>
       <r>   24.7014    0.0000 </r>
      </set>
      <set comment="kpoint 25">
       <r>   -1.4036    1.0000 </r>
       <r>   15.1287    0.0000 </r>
       <r>   15.1469    0.0000 </r>
       <r>   15.1470    0.0000 </r>
       <r>   16.6013    0.0000 </r>
       <r>   19.0192    0.0000 </r>
      </set>
      <set comment="kpoint 26">
       <r>   -0.2184    1.0000 </r>
       <r>   12.2315    0.0000 </r>
       <r>   13.2490    0.0000 </r>
       <r>   14.6543    0.0000 </r>
       <r>   16.9932    0.0000 </r>
       <r>   19.7272    0.0000 </r>
      </set>
      <set comment="kpoint 27">
       <r>    1.4261    1.0000 </r>
       <r>    9.0031    1.0000 </r>
       <r>   11.5691    0.0000 </r>
       <r>   14.5801    0.0000 </r>
       <r>   17.1055    0.0000 </r>
       <r>   22.4112    0.0000 </r>
      </set>
      <set comment="kpoint 28">
       <r>    3.5032    1.0000 </r>
       <r>    6.0951    1.0000 </r>
       <r>   10.3173    0.0001 </r>
       <r>   14.9235    0.0000 </r>
       <r>   17.5238    0.0000 </r>
       <r>   25.5900    0.0000 </r>
      </set>
      <set comment="kpoint 29">
       <r>    3.5045    1.0000 </r>
       <r>    6.0735    1.0000 </r>
       <r>    9.5247    1.0000 </r>
       <r>   15.6791    0.0000 </r>
       <r>   18.3725    0.0000 </r>
       <r>   27.6484    0.0000 </r>
      </set>
      <set comment="kpoint 30">
       <r>    1.4249    1.0000 </r>
       <r>    8.6051    1.0000 </r>
       <r>    9.5465    1.0000 </r>
       <r>   16.8288    0.0000 </r>
       <r>   19.6422    0.0000 </r>
       <r>   27.0773    0.0000 </r>
      </set>
      <set comment="kpoint 31">
       <r>    0.8031    1.0000 </r>
       <r>   10.9256    0.0000 </r>
       <r>   14.0229    0.0000 </r>
       <r>   14.0229    0.0000 </r>
       <r>   15.3443    0.0000 </r>
       <r>   17.7242    0.0000 </r>
      </set>
      <set comment="kpoint 32">
       <r>    2.2815    1.0000 </r>
       <r>    9.0672    1.0000 </r>
       <r>   11.4420    0.0000 </r>
       <r>   13.8105    0.0000 </r>
       <r>   16.0487    0.0000 </r>
       <r>   18.8651    0.0000 </r>
      </set>
      <set comment="kpoint 33">
       <r>    4.1905    1.0000 </r>
       <r>    7.5862    1.0000 </r>
       <r>    8.5440    1.0000 </r>
       <r>   14.0185    0.0000 </r>
       <r>   16.4839    0.0000 </r>
       <r>   21.8899    0.0000 </r>
      </set>
      <set comment="kpoint 34">
       <r>    5.6640    1.0000 </r>
       <r>    6.1901    1.0000 </r>
       <r>    7.2167    1.0000 </r>
       <r>   14.6442    0.0000 </r>
       <r>   17.2195    0.0000 </r>
       <r>   25.3871    0.0000 </r>
      </set>
      <set comment="kpoint 35">
       <r>    3.5796    1.0000 </r>
       <r>    7.0697    1.0000 </r>
       <r>   13.4592    0.0000 </r>
       <r>   13.4592    0.0000 </r>
       <r>   14.7101    0.0000 </r>
       <r>   17.1139    0.0000 </r>
      </set>
      <set comment="kpoint 36">
       <r>    4.9799    1.0000 </r>
       <r>    5.8331    1.0000 </r>
       <r>   11.1346    0.0000 </r>
       <r>   13.5287    0.0000 </r>
       <r>   15.7357    0.0000 </r>
       <r>   18.5782    0.0000 </r>
      </set>
      <set comment="kpoint 37">
       <r>   -2.6760    1.0000 </r>
       <r>   14.5552    0.0000 </r>
       <r>   15.1458    0.0000 </r>
       <r>   19.6794    0.0000 </r>
       <r>   21.2390    0.0000 </r>
       <r>   22.8599    0.0000 </r>
      </set>
      <set comment="kpoint 38">
       <r>   -1.4840    1.0000 </r>
       <r>   11.1655    0.0000 </r>
       <r>   14.3946    0.0000 </r>
       <r>   18.1596    0.0000 </r>
       <r>   21.3152    0.0000 </r>
       <r>   23.9680    0.0000 </r>
      </set>
      <set comment="kpoint 39">
       <r>    0.1717    1.0000 </r>
       <r>    7.8331    1.0000 </r>
       <r>   14.2913    0.0000 </r>
       <r>   16.6882    0.0000 </r>
       <r>   21.1552    0.0000 </r>
       <r>   23.5657    0.0000 </r>
      </set>
      <set comment="kpoint 40">
       <r>    2.2626    1.0000 </r>
       <r>    4.8902    1.0000 </r>
       <r>   14.5632    0.0000 </r>
       <r>   15.5998    0.0000 </r>
       <r>   21.3215    0.0000 </r>
       <r>   22.6246    0.0000 </r>
      </set>
      <set comment="kpoint 41">
       <r>   -1.0874    1.0000 </r>
       <r>   12.7864    0.0000 </r>
       <r>   13.4236    0.0000 </r>
       <r>   15.6536    0.0000 </r>
       <r>   19.5248    0.0000 </r>
       <r>   20.8913    0.0000 </r>
      </set>
      <set comment="kpoint 42">
       <r>    0.4091    1.0000 </r>
       <r>    9.6695    1.0000 </r>
       <r>   12.8721    0.0000 </r>
       <r>   13.9742    0.0000 </r>
       <r>   19.8762    0.0000 </r>
       <r>   22.9661    0.0000 </r>
      </set>
      <set comment="kpoint 43">
       <r>    2.3546    1.0000 </r>
       <r>    6.6202    1.0000 </r>
       <r>   12.3286    0.0000 </r>
       <r>   13.3428    0.0000 </r>
       <r>   20.1322    0.0000 </r>
       <r>   25.0851    0.0000 </r>
      </set>
      <set comment="kpoint 44">
       <r>    3.8347    1.0000 </r>
       <r>    4.8577    1.0000 </r>
       <r>   11.4640    0.0000 </r>
       <r>   13.9067    0.0000 </r>
       <r>   20.7643    0.0000 </r>
       <r>   24.5862    0.0000 </r>
      </set>
      <set comment="kpoint 45">
       <r>    1.6580    1.0000 </r>
       <r>    7.5778    1.0000 </r>
       <r>   10.9876    0.0000 </r>
       <r>   14.9632    0.0000 </r>
       <r>   21.7512    0.0000 </r>
       <r>   24.1401    0.0000 </r>
      </set>
      <set comment="kpoint 46">
       <r>   -0.1416    1.0000 </r>
       <r>   10.4089    0.0000 </r>
       <r>   11.2876    0.0000 </r>
       <r>   16.4285    0.0000 </r>
       <r>   22.8968    0.0000 </r>
       <r>   23.5766    0.0000 </r>
      </set>
      <set comment="kpoint 47">
       <r>    1.1152    1.0000 </r>
       <r>   11.1294    0.0000 </r>
       <r>   11.5982    0.0000 </r>
       <r>   12.5155    0.0000 </r>
       <r>   18.3484    0.0000 </r>
       <r>   19.7768    0.0000 </r>
      </set>
      <set comment="kpoint 48">
       <r>    2.8997    1.0000 </r>
       <r>    8.7134    1.0000 </r>
       <r>    9.7494    1.0000 </r>
       <r>   12.1868    0.0000 </r>
       <r>   19.0166    0.0000 </r>
       <r>   22.2313    0.0000 </r>
      </set>
      <set comment="kpoint 49">
       <r>    5.0577    1.0000 </r>
       <r>    6.0344    1.0000 </r>
       <r>    8.6325    1.0000 </r>
       <r>   12.6617    0.0000 </r>
       <r>   19.5856    0.0000 </r>
       <r>   25.4837    0.0000 </r>
      </set>
      <set comment="kpoint 50">
       <r>    3.5889    1.0000 </r>
       <r>    7.3988    1.0000 </r>
       <r>    8.3501    1.0000 </r>
       <r>   13.5987    0.0000 </r>
       <r>   20.5166    0.0000 </r>
       <r>   27.0726    0.0000 </r>
      </set>
      <set comment="kpoint 51">
       <r>    3.8870    1.0000 </r>
       <r>    7.3624    1.0000 </r>
       <r>   11.0019    0.0000 </r>
       <r>   11.8381    0.0000 </r>
       <r>   17.7525    0.0000 </r>
       <r>   19.2226    0.0000 </r>
      </set>
      <set comment="kpoint 52">
       <r>    5.5851    1.0000 </r>
       <r>    6.4064    1.0000 </r>
       <r>    8.5402    1.0000 </r>
       <r>   11.8727    0.0000 </r>
       <r>   18.7248    0.0000 </r>
       <r>   21.9741    0.0000 </r>
      </set>
      <set comment="kpoint 53">
       <r>    2.0490    1.0000 </r>
       <r>    9.2070    1.0000 </r>
       <r>   10.0606    0.4637 </r>
       <r>   12.2637    0.0000 </r>
       <r>   22.4564    0.0000 </r>
       <r>   23.0302    0.0000 </r>
      </set>
      <set comment="kpoint 54">
       <r>    4.1190    1.0000 </r>
       <r>    6.6715    1.0000 </r>
       <r>    9.9931    0.8059 </r>
       <r>   11.0812    0.0000 </r>
       <r>   22.9213    0.0000 </r>
       <r>   24.2096    0.0000 </r>
      </set>
      <set comment="kpoint 55">
       <r>    4.7997    1.0000 </r>
       <r>    8.1630    1.0000 </r>
       <r>    8.6054    1.0000 </r>
       <r>    9.7350    1.0000 </r>
       <r>   21.8876    0.0000 </r>
       <r>   22.7302    0.0000 </r>
      </set>
      <set comment="kpoint 56">
       <r>    6.2629    1.0000 </r>
       <r>    6.7943    1.0000 </r>
       <r>    7.7322    1.0000 </r>
       <r>    9.9340    0.9553 </r>
       <r>   22.8509    0.0000 </r>
       <r>   25.4912    0.0000 </r>
      </set>
     </set>
    </set>
   </array>
  </eigenvalues>
  <separator name="orbital magnetization" >
   <v name="MAGDIPOLOUT">      0.00000000      0.00000000      0.00000000</v>
  </separator>
  <dos>
   <i name="efermi">     10.05414491 </i>
   <total>
    <array>
     <dimension dim="1">gridpoints</dimension>
     <dimension dim="2">spin</dimension>
     <field>energy</field>
     <field>total</field>
     <field>integrated</field>
     <set>
      <set comment="spin 1">
       <r>    -5.8732     0.0000     0.0000 </r>
       <r>    -5.7562     0.0000     0.0000 </r>
       <r>    -5.6391     0.0000     0.0000 </r>
       <r>    -5.5221     0.0000     0.0000 </r>
       <r>    -5.4050     0.0000     0.0000 </r>
       <r>    -5.2879     0.0000     0.0000 </r>
       <r>    -5.1709     0.0000     0.0000 </r>
       <r>    -5.0538     0.0000     0.0000 </r>
       <r>    -4.9368     0.0000     0.0000 </r>
       <r>    -4.8197     0.0000     0.0000 </r>
       <r>    -4.7026     0.0000     0.0000 </r>
       <r>    -4.5856     0.0000     0.0000 </r>
       <r>    -4.4685     0.0000     0.0000 </r>
       <r>    -4.3515     0.0018     0.0002 </r>
       <r>    -4.2344     0.0077     0.0011 </r>
       <r>    -4.1174     0.0168     0.0031 </r>
       <r>    -4.0003     0.0781     0.0122 </r>
       <r>    -3.8832     0.0748     0.0210 </r>
       <r>    -3.7662     0.0179     0.0231 </r>
       <r>    -3.6491     0.0603     0.0301 </r>
       <r>    -3.5321     0.0861     0.0402 </r>
       <r>    -3.4150     0.1303     0.0555 </r>
       <r>    -3.2979     0.2156     0.0807 </r>
       <r>    -3.1809     0.0649     0.0883 </r>
       <r>    -3.0638     0.0157     0.0901 </r>
       <r>    -2.9468     0.0463     0.0956 </r>
       <r>    -2.8297     0.0676     0.1035 </r>
       <r>    -2.7126     0.2683     0.1349 </r>
       <r>    -2.5956     0.2554     0.1648 </r>
       <r>    -2.4785     0.0555     0.1713 </r>
       <r>    -2.3615     0.1349     0.1871 </r>
       <r>    -2.2444     0.1592     0.2057 </r>
       <r>    -2.1273     0.1865     0.2275 </r>
       <r>    -2.0103     0.1999     0.2509 </r>
       <r>    -1.8932     0.0267     0.2540 </r>
       <r>    -1.7762     0.0332     0.2579 </r>
       <r>    -1.6591     0.0952     0.2691 </r>
       <r>    -1.5420     0.1609     0.2879 </r>
       <r>    -1.4250     0.5055     0.3471 </r>
       <r>    -1.3079     0.3233     0.3849 </r>
       <r>    -1.1909     0.0579     0.3917 </r>
       <r>    -1.0738     0.1562     0.4100 </r>
       <r>    -0.9567     0.1433     0.4268 </r>
       <r>    -0.8397     0.2152     0.4520 </r>
       <r>    -0.7226     0.3030     0.4874 </r>
       <r>    -0.6056     0.0840     0.4973 </r>
       <r>    -0.4885     0.0361     0.5015 </r>
       <r>    -0.3714     0.0666     0.5093 </r>
       <r>    -0.2544     0.2096     0.5338 </r>
       <r>    -0.1373     0.4935     0.5916 </r>
       <r>    -0.0203     0.2093     0.6161 </r>
       <r>     0.0968     0.1018     0.6280 </r>
       <r>     0.2139     0.3602     0.6702 </r>
       <r>     0.3309     0.2887     0.7040 </r>
       <r>     0.4480     0.5408     0.7673 </r>
       <r>     0.5650     0.2496     0.7965 </r>
       <r>     0.6821     0.0152     0.7983 </r>
       <r>     0.7992     0.0337     0.8022 </r>
       <r>     0.9162     0.0530     0.8084 </r>
       <r>     1.0333     0.2276     0.8351 </r>
       <r>     1.1503     0.4932     0.8928 </r>
       <r>     1.2674     0.1880     0.9148 </r>
       <r>     1.3845     0.1318     0.9302 </r>
       <r>     1.5015     0.2785     0.9628 </r>
       <r>     1.6186     0.2883     0.9966 </r>
       <r>     1.7356     0.5545     1.0615 </r>
       <r>     1.8527     0.2242     1.0877 </r>
       <r>     1.9698     0.0546     1.0941 </r>
       <r>     2.0868     0.1814     1.1154 </r>
       <r>     2.2039     0.2592     1.1457 </r>
       <r>     2.3209     0.7316     1.2313 </r>
       <r>     2.4380     0.5601     1.2969 </r>
       <r>     2.5551     0.1781     1.3178 </r>
       <r>     2.6721     0.1727     1.3380 </r>
       <r>     2.7892     0.0688     1.3460 </r>
       <r>     2.9062     0.2949     1.3806 </r>
       <r>     3.0233     0.2619     1.4112 </r>
       <r>     3.1404     0.0721     1.4197 </r>
       <r>     3.2574     0.1806     1.4408 </r>
       <r>     3.3745     0.0970     1.4521 </r>
       <r>     3.4915     0.2853     1.4855 </r>
       <r>     3.6086     0.5939     1.5551 </r>
       <r>     3.7257     0.3985     1.6017 </r>
       <r>     3.8427     0.4300     1.6521 </r>
       <r>     3.9598     0.4449     1.7041 </r>
       <r>     4.0768     0.2497     1.7334 </r>
       <r>     4.1939     0.5675     1.7998 </r>
       <r>     4.3110     0.4605     1.8537 </r>
       <r>     4.4280     0.1155     1.8672 </r>
       <r>     4.5451     0.0046     1.8678 </r>
       <r>     4.6621     0.0101     1.8690 </r>
       <r>     4.7792     0.2273     1.8956 </r>
       <r>     4.8963     0.8343     1.9932 </r>
       <r>     5.0133     0.7030     2.0755 </r>
       <r>     5.1304     0.4394     2.1270 </r>
       <r>     5.2474     0.0967     2.1383 </r>
       <r>     5.3645     0.0698     2.1464 </r>
       <r>     5.4816     0.2045     2.1704 </r>
       <r>     5.5986     0.2367     2.1981 </r>
       <r>     5.7157     0.2206     2.2239 </r>
       <r>     5.8327     0.1164     2.2375 </r>
       <r>     5.9498     0.2090     2.2620 </r>
       <r>     6.0668     0.7715     2.3523 </r>
       <r>     6.1839     0.6846     2.4325 </r>
       <r>     6.3010     0.3560     2.4741 </r>
       <r>     6.4180     0.4071     2.5218 </r>
       <r>     6.5351     0.3331     2.5608 </r>
       <r>     6.6521     0.5972     2.6307 </r>
       <r>     6.7692     0.6176     2.7030 </r>
       <r>     6.8863     0.2430     2.7314 </r>
       <r>     7.0033     0.1802     2.7525 </r>
       <r>     7.1204     0.2049     2.7765 </r>
       <r>     7.2374     0.1755     2.7970 </r>
       <r>     7.3545     0.3107     2.8334 </r>
       <r>     7.4716     0.3940     2.8795 </r>
       <r>     7.5886     0.5176     2.9401 </r>
       <r>     7.7057     0.5104     2.9999 </r>
       <r>     7.8227     0.4539     3.0530 </r>
       <r>     7.9398     0.3344     3.0922 </r>
       <r>     8.0569     0.0608     3.0993 </r>
       <r>     8.1739     0.1548     3.1174 </r>
       <r>     8.2910     0.1848     3.1390 </r>
       <r>     8.4080     0.2311     3.1661 </r>
       <r>     8.5251     0.5414     3.2295 </r>
       <r>     8.6422     1.1090     3.3593 </r>
       <r>     8.7592     0.8044     3.4534 </r>
       <r>     8.8763     0.1953     3.4763 </r>
       <r>     8.9933     0.2075     3.5006 </r>
       <r>     9.1104     0.5239     3.5619 </r>
       <r>     9.2275     0.3654     3.6047 </r>
       <r>     9.3445     0.1234     3.6191 </r>
       <r>     9.4616     0.0840     3.6290 </r>
       <r>     9.5786     0.3987     3.6756 </r>
       <r>     9.6957     0.8501     3.7751 </r>
       <r>     9.8128     0.8295     3.8723 </r>
       <r>     9.9298     0.4208     3.9215 </r>
       <r>    10.0469     0.6358     3.9959 </r>
       <r>    10.1639     0.3779     4.0402 </r>
       <r>    10.2810     0.3085     4.0763 </r>
       <r>    10.3981     0.3544     4.1178 </r>
       <r>    10.5151     0.2014     4.1414 </r>
       <r>    10.6322     0.0760     4.1503 </r>
       <r>    10.7492     0.0369     4.1546 </r>
       <r>    10.8663     0.0530     4.1608 </r>
       <r>    10.9834     0.4881     4.2179 </r>
       <r>    11.1004     1.0409     4.3398 </r>
       <r>    11.2175     0.9542     4.4515 </r>
       <r>    11.3345     0.4256     4.5013 </r>
       <r>    11.4516     0.4971     4.5595 </r>
       <r>    11.5687     0.6741     4.6384 </r>
       <r>    11.6857     0.3697     4.6817 </r>
       <r>    11.8028     0.1882     4.7037 </r>
       <r>    11.9198     0.3977     4.7502 </r>
       <r>    12.0369     0.3026     4.7857 </r>
       <r>    12.1540     0.3757     4.8296 </r>
       <r>    12.2710     0.8918     4.9340 </r>
       <r>    12.3881     0.7405     5.0207 </r>
       <r>    12.5051     0.4606     5.0746 </r>
       <r>    12.6222     0.5037     5.1336 </r>
       <r>    12.7393     0.6341     5.2078 </r>
       <r>    12.8563     0.5275     5.2696 </r>
       <r>    12.9734     0.4100     5.3176 </r>
       <r>    13.0904     0.1507     5.3352 </r>
       <r>    13.2075     0.2863     5.3687 </r>
       <r>    13.3246     0.7696     5.4588 </r>
       <r>    13.4416     0.7029     5.5411 </r>
       <r>    13.5587     0.4194     5.5902 </r>
       <r>    13.6757     0.3098     5.6264 </r>
       <r>    13.7928     0.3775     5.6706 </r>
       <r>    13.9099     0.6521     5.7470 </r>
       <r>    14.0269     0.8819     5.8502 </r>
       <r>    14.1440     0.3710     5.8936 </r>
       <r>    14.2610     0.3059     5.9294 </r>
       <r>    14.3781     0.8221     6.0257 </r>
       <r>    14.4952     0.6788     6.1051 </r>
       <r>    14.6122     0.9042     6.2110 </r>
       <r>    14.7293     0.6090     6.2823 </r>
       <r>    14.8463     0.1739     6.3026 </r>
       <r>    14.9634     0.4625     6.3568 </r>
       <r>    15.0805     0.4590     6.4105 </r>
       <r>    15.1975     0.3529     6.4518 </r>
       <r>    15.3146     0.1413     6.4684 </r>
       <r>    15.4316     0.0527     6.4745 </r>
       <r>    15.5487     0.1871     6.4964 </r>
       <r>    15.6657     0.8720     6.5985 </r>
       <r>    15.7828     1.1685     6.7353 </r>
       <r>    15.8999     0.4765     6.7911 </r>
       <r>    16.0169     0.5420     6.8545 </r>
       <r>    16.1340     0.5525     6.9192 </r>
       <r>    16.2510     0.2975     6.9540 </r>
       <r>    16.3681     0.4023     7.0011 </r>
       <r>    16.4852     0.5949     7.0708 </r>
       <r>    16.6022     0.3882     7.1162 </r>
       <r>    16.7193     0.4220     7.1656 </r>
       <r>    16.8363     0.4058     7.2131 </r>
       <r>    16.9534     0.3189     7.2504 </r>
       <r>    17.0705     0.4971     7.3086 </r>
       <r>    17.1875     0.8215     7.4048 </r>
       <r>    17.3046     0.8656     7.5061 </r>
       <r>    17.4216     0.5339     7.5686 </r>
       <r>    17.5387     0.2312     7.5957 </r>
       <r>    17.6558     0.1603     7.6145 </r>
       <r>    17.7728     0.2687     7.6459 </r>
       <r>    17.8899     0.3333     7.6849 </r>
       <r>    18.0069     0.2555     7.7148 </r>
       <r>    18.1240     0.4339     7.7656 </r>
       <r>    18.2411     0.6507     7.8418 </r>
       <r>    18.3581     0.6945     7.9231 </r>
       <r>    18.4752     0.7833     8.0148 </r>
       <r>    18.5922     0.3199     8.0522 </r>
       <r>    18.7093     0.5665     8.1185 </r>
       <r>    18.8264     0.8647     8.2198 </r>
       <r>    18.9434     0.8116     8.3148 </r>
       <r>    19.0605     0.9009     8.4202 </r>
       <r>    19.1775     0.3434     8.4604 </r>
       <r>    19.2946     0.1915     8.4829 </r>
       <r>    19.4117     0.0896     8.4933 </r>
       <r>    19.5287     0.4003     8.5402 </r>
       <r>    19.6458     0.8513     8.6399 </r>
       <r>    19.7628     1.1108     8.7699 </r>
       <r>    19.8799     0.9581     8.8821 </r>
       <r>    19.9970     0.5651     8.9482 </r>
       <r>    20.1140     0.4934     9.0060 </r>
       <r>    20.2311     0.5470     9.0700 </r>
       <r>    20.3481     0.2042     9.0939 </r>
       <r>    20.4652     0.2203     9.1197 </r>
       <r>    20.5823     0.4100     9.1677 </r>
       <r>    20.6993     0.4843     9.2244 </r>
       <r>    20.8164     0.6218     9.2972 </r>
       <r>    20.9334     0.3434     9.3374 </r>
       <r>    21.0505     0.1460     9.3545 </r>
       <r>    21.1676     0.6140     9.4263 </r>
       <r>    21.2846     1.3861     9.5886 </r>
       <r>    21.4017     1.1470     9.7229 </r>
       <r>    21.5187     0.4079     9.7706 </r>
       <r>    21.6358     0.4129     9.8189 </r>
       <r>    21.7529     0.4459     9.8711 </r>
       <r>    21.8699     0.5553     9.9361 </r>
       <r>    21.9870     0.5746    10.0034 </r>
       <r>    22.1040     0.4268    10.0534 </r>
       <r>    22.2211     0.4632    10.1076 </r>
       <r>    22.3382     0.4622    10.1617 </r>
       <r>    22.4552     0.7026    10.2439 </r>
       <r>    22.5723     0.5590    10.3094 </r>
       <r>    22.6893     0.4879    10.3665 </r>
       <r>    22.8064     0.5550    10.4315 </r>
       <r>    22.9235     1.1818    10.5698 </r>
       <r>    23.0405     1.2653    10.7179 </r>
       <r>    23.1576     0.4652    10.7724 </r>
       <r>    23.2746     0.4101    10.8204 </r>
       <r>    23.3917     0.4905    10.8778 </r>
       <r>    23.5088     0.5737    10.9450 </r>
       <r>    23.6258     0.6244    11.0180 </r>
       <r>    23.7429     0.1926    11.0406 </r>
       <r>    23.8599     0.0469    11.0461 </r>
       <r>    23.9770     0.3461    11.0866 </r>
       <r>    24.0941     0.5306    11.1487 </r>
       <r>    24.2111     0.7682    11.2386 </r>
       <r>    24.3282     0.6250    11.3118 </r>
       <r>    24.4452     0.5787    11.3795 </r>
       <r>    24.5623     0.8374    11.4776 </r>
       <r>    24.6794     0.7761    11.5684 </r>
       <r>    24.7964     0.2076    11.5927 </r>
       <r>    24.9135     0.0505    11.5986 </r>
       <r>    25.0305     0.1818    11.6199 </r>
       <r>    25.1476     0.4976    11.6781 </r>
       <r>    25.2646     0.2694    11.7097 </r>
       <r>    25.3817     0.1527    11.7276 </r>
       <r>    25.4988     0.5655    11.7938 </r>
       <r>    25.6158     0.5423    11.8572 </r>
       <r>    25.7329     0.1344    11.8730 </r>
       <r>    25.8499     0.0159    11.8748 </r>
       <r>    25.9670     0.1166    11.8885 </r>
       <r>    26.0841     0.1585    11.9071 </r>
       <r>    26.2011     0.0235    11.9098 </r>
       <r>    26.3182     0.0003    11.9098 </r>
       <r>    26.4352     0.0000    11.9098 </r>
       <r>    26.5523     0.0000    11.9098 </r>
       <r>    26.6694     0.0000    11.9098 </r>
       <r>    26.7864     0.0000    11.9098 </r>
       <r>    26.9035     0.0037    11.9103 </r>
       <r>    27.0205     0.1000    11.9220 </r>
       <r>    27.1376     0.2730    11.9539 </r>
       <r>    27.2547     0.0829    11.9636 </r>
       <r>    27.3717     0.0025    11.9639 </r>
       <r>    27.4888     0.0037    11.9644 </r>
       <r>    27.6058     0.0806    11.9738 </r>
       <r>    27.7229     0.1788    11.9947 </r>
       <r>    27.8400     0.0440    11.9999 </r>
       <r>    27.9570     0.0010    12.0000 </r>
       <r>    28.0741     0.0000    12.0000 </r>
       <r>    28.1911     0.0000    12.0000 </r>
       <r>    28.3082     0.0000    12.0000 </r>
       <r>    28.4253     0.0000    12.0000 </r>
       <r>    28.5423     0.0000    12.0000 </r>
       <r>    28.6594     0.0000    12.0000 </r>
       <r>    28.7764     0.0000    12.0000 </r>
       <r>    28.8935     0.0000    12.0000 </r>
       <r>    29.0106     0.0000    12.0000 </r>
       <r>    29.1276     0.0000    12.0000 </r>
       <r>    29.2447     0.0000    12.0000 </r>
      </set>
     </set>
    </array>
   </total>
  </dos>
 </calculation>
 <structure name="finalpos" >
  <crystal>
   <varray name="basis" >
    <v>       1.93314544       1.93314544       0.00000000 </v>
    <v>       0.00000000       1.93314544       1.93314544 </v>
    <v>       1.93314544       0.00000000       1.93314544 </v>
   </varray>
   <i name="volume">     14.44852741 </i>
   <varray name="rec_basis" >
    <v>       0.25864583       0.25864583      -0.25864583 </v>
    <v>      -0.25864583       0.25864583       0.25864583 </v>
    <v>       0.25864583      -0.25864583       0.25864583 </v>
   </varray>
  </crystal>
  <varray name="positions" >
   <v>       0.00000000       0.00000000       0.00000000 </v>
  </varray>
 </structure>
</modeling>
