fcc Si                                  
           1
     2.000000    2.000000    0.000000
     0.000000    2.000000    2.000000
     2.000000    0.000000    2.000000
   Si
     1
Direct configuration=     1
   0.00000000  0.00000000  0.00000000
fcc Si                                  
           1
     1.935764    1.935764    0.000000
     0.000000    1.935764    1.935764
     1.935764    0.000000    1.935764
   Si
     1
Direct configuration=     2
   0.00000000  0.00000000  0.00000000
fcc Si                                  
           1
     1.933145    1.933145    0.000000
     0.000000    1.933145    1.933145
     1.933145    0.000000    1.933145
   Si
     1
Direct configuration=     3
   0.00000000  0.00000000  0.00000000
