       N       E                     dE             d eps       ncg     rms          rms(c)
DAV:   1     0.736978515572E+02    0.73698E+02   -0.21791E+03    16   0.689E+02
DAV:   2     0.666130274155E+01   -0.67037E+02   -0.67037E+02    32   0.856E+01
DAV:   3    -0.159125372128E+02   -0.22574E+02   -0.22574E+02    24   0.898E+01
DAV:   4    -0.163626366967E+02   -0.45010E+00   -0.45010E+00    16   0.134E+01
DAV:   5    -0.163658775833E+02   -0.32409E-02   -0.32409E-02    32   0.109E+00    0.799E+00
DAV:   6    -0.144035734652E+02    0.19623E+01   -0.98511E+00    16   0.227E+01    0.306E+00
DAV:   7    -0.142898270637E+02    0.11375E+00   -0.97974E-02    32   0.270E+00    0.191E+00
DAV:   8    -0.141991695171E+02    0.90658E-01   -0.76384E-02    16   0.282E+00    0.236E-01
DAV:   9    -0.142040564319E+02   -0.48869E-02   -0.71173E-03    24   0.600E-01    0.154E-01
DAV:  10    -0.142123891395E+02   -0.83327E-02   -0.50293E-03    16   0.652E-01    0.800E-02
DAV:  11    -0.142174002656E+02   -0.50111E-02   -0.38995E-03    16   0.384E-01    0.791E-02
DAV:  12    -0.142206239498E+02   -0.32237E-02   -0.16305E-03    32   0.261E-01    0.187E-02
DAV:  13    -0.142216463350E+02   -0.10224E-02   -0.14608E-04    24   0.879E-02    0.156E-02
DAV:  14    -0.142218288213E+02   -0.18249E-03   -0.13855E-05    32   0.260E-02    0.492E-03
DAV:  15    -0.142219258977E+02   -0.97076E-04   -0.98347E-06    32   0.195E-02
   1 F= -.14221926E+02 E0= -.14221926E+02  d E =-.142219E+02
       N       E                     dE             d eps       ncg     rms          rms(c)
DAV:   1    -0.142185171430E+02    0.33117E-02   -0.15961E+00    16   0.113E+01    0.832E-01
DAV:   2    -0.142060340656E+02    0.12483E-01   -0.78523E-02    24   0.207E+00    0.303E-01
DAV:   3    -0.142055271853E+02    0.50688E-03   -0.14490E-03    24   0.370E-01    0.157E-01
DAV:   4    -0.142054347919E+02    0.92393E-04   -0.74238E-04    24   0.277E-01
   2 F= -.14205435E+02 E0= -.14205435E+02  d E =0.164911E-01
       N       E                     dE             d eps       ncg     rms          rms(c)
DAV:   1    -0.142400869497E+02   -0.34560E-01   -0.51985E-01    16   0.644E+00    0.438E-01
DAV:   2    -0.142365852832E+02    0.35017E-02   -0.20621E-02    24   0.112E+00    0.174E-01
DAV:   3    -0.142364040706E+02    0.18121E-03   -0.87066E-04    16   0.261E-01    0.837E-02
DAV:   4    -0.142364008585E+02    0.32121E-05   -0.24083E-04    16   0.156E-01
   3 F= -.14236401E+02 E0= -.14236401E+02  d E =-.309661E-01
       N       E                     dE             d eps       ncg     rms          rms(c)
DAV:   1    -0.142365721179E+02   -0.16805E-03   -0.34175E-03    32   0.571E-01    0.316E-02
DAV:   2    -0.142365627462E+02    0.93717E-05   -0.11099E-04    24   0.856E-02
   4 F= -.14236563E+02 E0= -.14236563E+02  d E =-.161888E-03
