<?xml version="1.0" encoding="ISO-8859-1"?>
<modeling>
 <generator>
  <i name="program" type="string">vasp </i>
  <i name="version" type="string">6.3.2  </i>
  <i name="subversion" type="string">27Jun22 (build Oct 19 2022 15:35:57) gamma-only                       parallel </i>
  <i name="platform" type="string">LinuxIFC </i>
  <i name="date" type="string">2023 09 19 </i>
  <i name="time" type="string">17:55:17 </i>
 </generator>
 <incar>
  <i type="string" name="PREC">Normal</i>
  <i type="int" name="IBRION">     1</i>
  <i type="int" name="NFREE">     2</i>
  <i name="EDIFFG">     -0.02000000</i>
  <i type="int" name="NSW">    20</i>
  <i name="ENCUT">    700.00000000</i>
  <i type="int" name="ISMEAR">     0</i>
  <i name="SIGMA">      0.10000000</i>
 </incar>
 <primitive_cell>
  <structure name="primitive_cell" >
   <crystal>
    <varray name="basis" >
     <v>       7.93770000       0.00000000       0.00000000 </v>
     <v>       0.00000000       7.93770000       0.00000000 </v>
     <v>       0.00000000       0.00000000       7.93770000 </v>
    </varray>
    <i name="volume">    500.13130916 </i>
    <varray name="rec_basis" >
     <v>       0.12598108       0.00000000       0.00000000 </v>
     <v>       0.00000000       0.12598108       0.00000000 </v>
     <v>       0.00000000       0.00000000       0.12598108 </v>
    </varray>
   </crystal>
   <varray name="positions" >
    <v>       0.00000000       0.00000000       0.00000000 </v>
    <v>       0.07333333       0.90466667       0.00000000 </v>
    <v>       0.07333333       0.09533333       0.00000000 </v>
   </varray>
  </structure>
  <varray name="primitive_index" >
   <v type="int" >        1 </v>
   <v type="int" >        2 </v>
   <v type="int" >        3 </v>
  </varray>
 </primitive_cell>
 <kpoints>
  <generation param="Monkhorst-Pack">
   <v type="int" name="divisions">       1        1        1 </v>
   <v name="usershift">      0.00000000       0.00000000       0.00000000 </v>
   <v name="genvec1">      1.00000000       0.00000000       0.00000000 </v>
   <v name="genvec2">      0.00000000       1.00000000       0.00000000 </v>
   <v name="genvec3">      0.00000000       0.00000000       1.00000000 </v>
   <v name="shift">      0.00000000       0.00000000       0.00000000 </v>
  </generation>
  <varray name="kpointlist" >
   <v>       0.00000000       0.00000000       0.00000000 </v>
  </varray>
  <varray name="weights" >
   <v>       1.00000000 </v>
  </varray>
 </kpoints>
 <parameters>
  <separator name="general" >
   <i type="string" name="SYSTEM">unknown system</i>
   <i type="logical" name="LCOMPAT"> F  </i>
  </separator>
  <separator name="electronic" >
   <i type="string" name="PREC">normal</i>
   <i name="ENMAX">    700.00000000</i>
   <i name="ENAUG">    605.39200000</i>
   <i name="EDIFF">      0.00010000</i>
   <i type="int" name="IALGO">    38</i>
   <i type="int" name="IWAVPR">    11</i>
   <i type="int" name="NBANDS">     8</i>
   <i type="int" name="NBANDSLOW">    -1</i>
   <i type="int" name="NBANDSHIGH">    -1</i>
   <i name="NELECT">      8.00000000</i>
   <i type="int" name="TURBO">     0</i>
   <i type="int" name="IRESTART">     0</i>
   <i type="int" name="NREBOOT">     0</i>
   <i type="int" name="NMIN">     0</i>
   <i name="EREF">      0.00000000</i>
   <separator name="electronic smearing" >
    <i type="int" name="ISMEAR">     0</i>
    <i name="SIGMA">      0.10000000</i>
    <i name="KSPACING">      0.50000000</i>
    <i type="logical" name="KGAMMA"> T  </i>
    <i type="logical" name="KBLOWUP"> T  </i>
   </separator>
   <separator name="electronic projectors" >
    <i type="logical" name="LREAL"> F  </i>
    <v name="ROPT">      0.00000000      0.00000000</v>
    <i type="int" name="LMAXPAW">  -100</i>
    <i type="int" name="LMAXMIX">     2</i>
    <i type="logical" name="NLSPLINE"> F  </i>
   </separator>
   <separator name="electronic startup" >
    <i type="int" name="ISTART">     0</i>
    <i type="int" name="ICHARG">     2</i>
    <i type="int" name="INIWAV">     1</i>
   </separator>
   <separator name="electronic spin" >
    <i type="int" name="ISPIN">     1</i>
    <i type="logical" name="LNONCOLLINEAR"> F  </i>
    <v name="MAGMOM">      1.00000000      1.00000000      1.00000000</v>
    <i name="NUPDOWN">     -1.00000000</i>
    <i type="logical" name="LSORBIT"> F  </i>
    <v name="SAXIS">      0.00000000      0.00000000      1.00000000</v>
    <i type="logical" name="LSPIRAL"> F  </i>
    <v name="QSPIRAL">      0.00000000      0.00000000      0.00000000</v>
    <i type="logical" name="LZEROZ"> F  </i>
   </separator>
   <separator name="electronic exchange-correlation" >
    <i type="logical" name="LASPH"> F  </i>
    <i type="logical" name="LMETAGGA"> F  </i>
   </separator>
   <separator name="electronic convergence" >
    <i type="int" name="NELM">    60</i>
    <i type="int" name="NELMDL">    -5</i>
    <i type="int" name="NELMIN">     2</i>
    <i name="ENINI">    700.00000000</i>
    <separator name="electronic convergence detail" >
     <i type="logical" name="LDIAG"> T  </i>
     <i type="logical" name="LSUBROT"> F  </i>
     <i name="WEIMIN">      0.00100000</i>
     <i name="EBREAK">      0.00000313</i>
     <i name="DEPER">      0.30000000</i>
     <i type="int" name="NRMM">     4</i>
     <i name="TIME">      0.40000000</i>
    </separator>
   </separator>
   <separator name="electronic mixer" >
    <i name="AMIX">      0.40000000</i>
    <i name="BMIX">      1.00000000</i>
    <i name="AMIN">      0.10000000</i>
    <i name="AMIX_MAG">      1.60000000</i>
    <i name="BMIX_MAG">      1.00000000</i>
    <separator name="electronic mixer details" >
     <i type="int" name="IMIX">     4</i>
     <i type="logical" name="MIXFIRST"> F  </i>
     <i type="int" name="MAXMIX">   -45</i>
     <i name="WC">    100.00000000</i>
     <i type="int" name="INIMIX">     1</i>
     <i type="int" name="MIXPRE">     1</i>
     <i type="int" name="MREMOVE">     5</i>
    </separator>
   </separator>
   <separator name="electronic dipolcorrection" >
    <i type="logical" name="LDIPOL"> F  </i>
    <i type="logical" name="LMONO"> F  </i>
    <i type="int" name="IDIPOL">     0</i>
    <i name="EPSILON">      1.00000000</i>
    <v name="DIPOL">   -100.00000000   -100.00000000   -100.00000000</v>
    <i name="EFIELD">      0.00000000</i>
   </separator>
  </separator>
  <separator name="grids" >
   <i type="int" name="NGX">    54</i>
   <i type="int" name="NGY">    54</i>
   <i type="int" name="NGZ">    54</i>
   <i type="int" name="NGXF">   108</i>
   <i type="int" name="NGYF">   108</i>
   <i type="int" name="NGZF">   108</i>
   <i type="logical" name="ADDGRID"> F  </i>
  </separator>
  <separator name="ionic" >
   <i type="int" name="NSW">    20</i>
   <i type="int" name="IBRION">     1</i>
   <i type="int" name="MDALGO">     0</i>
   <i type="int" name="ISIF">     2</i>
   <i name="PSTRESS">      0.00000000</i>
   <i name="EDIFFG">     -0.02000000</i>
   <i type="int" name="NFREE">     2</i>
   <i name="POTIM">      0.50000000</i>
   <i name="SMASS">     -3.00000000</i>
   <i name="SCALEE">      1.00000000</i>
  </separator>
  <separator name="ionic md" >
   <i name="TEBEG">      0.00010000</i>
   <i name="TEEND">      0.00010000</i>
   <i type="int" name="NBLOCK">     1</i>
   <i type="int" name="KBLOCK">    20</i>
   <i type="int" name="NPACO">   256</i>
   <i name="APACO">     10.00000000</i>
  </separator>
  <separator name="symmetry" >
   <i type="int" name="ISYM">     2</i>
   <i name="SYMPREC">      0.00001000</i>
  </separator>
  <separator name="dos" >
   <i type="int" name="LORBIT">     0</i>
   <v name="RWIGS">     -1.00000000     -1.00000000</v>
   <i type="int" name="NEDOS">   301</i>
   <i name="EMIN">     10.00000000</i>
   <i name="EMAX">    -10.00000000</i>
   <i name="EFERMI">      0.00000000</i>
  </separator>
  <separator name="writing" >
   <i type="int" name="NWRITE">     2</i>
   <i type="logical" name="LWAVE"> T  </i>
   <i type="logical" name="LDOWNSAMPLE"> F  </i>
   <i type="logical" name="LCHARG"> T  </i>
   <i type="logical" name="LPARD"> F  </i>
   <i type="logical" name="LVTOT"> F  </i>
   <i type="logical" name="LVHAR"> F  </i>
   <i type="logical" name="LELF"> F  </i>
   <i type="logical" name="LOPTICS"> F  </i>
   <v name="STM">      0.00000000      0.00000000      0.00000000      0.00000000      0.00000000      0.00000000      0.00000000</v>
  </separator>
  <separator name="performance" >
   <i type="int" name="NPAR">     1</i>
   <i type="int" name="NSIM">     4</i>
   <i type="int" name="NBLK">    -1</i>
   <i type="logical" name="LPLANE"> T  </i>
   <i type="logical" name="LSCALAPACK"> T  </i>
   <i type="logical" name="LSCAAWARE"> F  </i>
   <i type="logical" name="LSCALU"> F  </i>
   <i type="logical" name="LASYNC"> F  </i>
   <i type="logical" name="LORBITALREAL"> F  </i>
  </separator>
  <separator name="miscellaneous" >
   <i type="int" name="IDIOT">     3</i>
   <i type="int" name="PHON_NSTRUCT">    -1</i>
   <i type="logical" name="LMUSIC"> F  </i>
   <v name="POMASS">     16.00000000      1.00000000</v>
   <v name="DARWINR">      0.00000000      0.00000000</v>
   <v name="DARWINV">      1.00000000      1.00000000</v>
   <i type="logical" name="LCORR"> T  </i>
  </separator>
  <i type="logical" name="GGA_COMPAT"> T  </i>
  <i type="logical" name="LBERRY"> F  </i>
  <i type="int" name="ICORELEVEL">     0</i>
  <i type="logical" name="LDAU"> F  </i>
  <i type="int" name="I_CONSTRAINED_M">     0</i>
  <separator name="electronic exchange-correlation" >
   <i type="string" name="GGA">--</i>
   <i type="int" name="VOSKOWN">     0</i>
   <i type="logical" name="LHFCALC"> F  </i>
   <i type="string" name="PRECFOCK"></i>
   <i type="logical" name="LSYMGRAD"> F  </i>
   <i type="logical" name="LHFONE"> F  </i>
   <i type="logical" name="LRHFCALC"> F  </i>
   <i type="logical" name="LTHOMAS"> F  </i>
   <i type="logical" name="LMODELHF"> F  </i>
   <i type="logical" name="LFOCKACE"> F  </i>
   <i name="ENCUT4O">     -1.00000000</i>
   <i type="int" name="EXXOEP">     0</i>
   <i type="int" name="FOURORBIT">     0</i>
   <i name="AEXX">      0.00000000</i>
   <i name="HFALPHA">      0.00000000</i>
   <i name="MCALPHA">      0.00000000</i>
   <i name="ALDAX">      1.00000000</i>
   <i name="AGGAX">      1.00000000</i>
   <i name="ALDAC">      1.00000000</i>
   <i name="AGGAC">      1.00000000</i>
   <i type="int" name="NKREDX">     1</i>
   <i type="int" name="NKREDY">     1</i>
   <i type="int" name="NKREDZ">     1</i>
   <i type="logical" name="SHIFTRED"> F  </i>
   <i type="logical" name="ODDONLY"> F  </i>
   <i type="logical" name="EVENONLY"> F  </i>
   <i type="int" name="LMAXFOCK">     0</i>
   <i type="int" name="NMAXFOCKAE">     0</i>
   <i type="logical" name="LFOCKAEDFT"> F  </i>
   <i name="HFSCREEN">      0.00000000</i>
   <i name="HFSCREENC">      0.00000000</i>
   <i type="int" name="NBANDSGWLOW">     0</i>
  </separator>
  <separator name="vdW DFT" >
   <i type="logical" name="LUSE_VDW"> F  </i>
   <i name="Zab_VDW">     -0.84910000</i>
   <i name="PARAM1">      0.12340000</i>
   <i name="PARAM2">      1.00000000</i>
   <i name="PARAM3">      0.00000000</i>
  </separator>
  <separator name="model GW" >
   <i type="int" name="MODEL_GW">     0</i>
   <i name="MODEL_EPS0">    100.02626183</i>
   <i name="MODEL_ALPHA">      1.00000000</i>
  </separator>
  <separator name="linear response parameters" >
   <i type="logical" name="LEPSILON"> F  </i>
   <i type="logical" name="LRPA"> F  </i>
   <i type="logical" name="LNABLA"> F  </i>
   <i type="logical" name="LVEL"> F  </i>
   <i name="CSHIFT">      0.10000000</i>
   <i name="OMEGAMAX">     -1.00000000</i>
   <i name="DEG_THRESHOLD">      0.00200000</i>
   <i name="RTIME">     -0.10000000</i>
   <i name="WPLASMAI">      0.00000000</i>
   <v name="DFIELD">      0.00000000      0.00000000      0.00000000</v>
   <v name="WPLASMA">      0.00000000      0.00000000      0.00000000      0.00000000      0.00000000      0.00000000      0.00000000      0.00000000      0.00000000</v>
  </separator>
  <separator name="orbital magnetization" >
   <i type="logical" name="NUCIND"> F  </i>
   <v name="MAGPOS">      0.00000000      0.00000000      0.00000000</v>
   <i type="logical" name="LNICSALL"> T  </i>
   <i type="logical" name="ORBITALMAG"> F  </i>
   <i type="logical" name="LMAGBLOCH"> F  </i>
   <i type="logical" name="LCHIMAG"> F  </i>
   <i type="logical" name="LGAUGE"> T  </i>
   <i type="int" name="MAGATOM">     0</i>
   <v name="MAGDIPOL">      0.00000000      0.00000000      0.00000000</v>
   <v name="AVECCONST">      0.00000000      0.00000000      0.00000000</v>
  </separator>
  <separator name="response functions" >
   <i type="logical" name="LFINITE_TEMPERATURE"> F  </i>
   <i type="logical" name="LADDER"> F  </i>
   <i type="logical" name="LRPAFORCE"> F  </i>
   <i type="logical" name="LFXC"> F  </i>
   <i type="logical" name="LHARTREE"> T  </i>
   <i type="int" name="IBSE">     0</i>
   <v type="int" name="KPOINT">    -1     0     0     0</v>
   <i type="logical" name="LTCTC"> F  </i>
   <i type="logical" name="LTCTE"> F  </i>
   <i type="logical" name="LTETE"> F  </i>
   <i type="logical" name="LTRIPLET"> F  </i>
   <i type="logical" name="LFXCEPS"> F  </i>
   <i type="logical" name="LFXHEG"> F  </i>
   <i type="int" name="NATURALO">     2</i>
   <i type="logical" name="LHOLEGF"> F  </i>
   <i type="logical" name="L2ORDER"> F  </i>
   <i type="logical" name="LDMP1"> F  </i>
   <i type="logical" name="LMP2LT"> F  </i>
   <i type="logical" name="LSMP2LT"> F  </i>
   <i type="logical" name="LGWLF"> F  </i>
   <i name="ENCUTGW">     -2.00000000</i>
   <i name="ENCUTGWSOFT">     -2.00000000</i>
   <i name="ENCUTLF">     -1.00000000</i>
   <i type="logical" name="LESF_SPLINES"> F  </i>
   <i type="int" name="LMAXMP2">    -1</i>
   <i name="SCISSOR">      0.00000000</i>
   <i type="int" name="NOMEGA">     0</i>
   <i type="int" name="NOMEGAR">     0</i>
   <i type="int" name="NBANDSGW">    -1</i>
   <i type="int" name="NBANDSO">    -1</i>
   <i type="int" name="NBANDSV">    -1</i>
   <i type="int" name="NELMGW">     1</i>
   <i type="int" name="NELMHF">     1</i>
   <i type="int" name="DIM">     3</i>
   <i type="int" name="IESPILON">     4</i>
   <i type="int" name="ANTIRES">     0</i>
   <i name="OMEGAMAX">    -30.00000000</i>
   <i name="OMEGAMIN">    -30.00000000</i>
   <i name="OMEGATL">   -200.00000000</i>
   <i type="int" name="OMEGAGRID">     0</i>
   <i name="CSHIFT">     -0.10000000</i>
   <i type="logical" name="LSELFENERGY"> F  </i>
   <i type="logical" name="LSPECTRAL"> F  </i>
   <i type="logical" name="LSPECTRALGW"> F  </i>
   <i type="logical" name="LSINGLES"> F  </i>
   <i type="logical" name="LFERMIGW"> F  </i>
   <i type="logical" name="ODDONLYGW"> F  </i>
   <i type="logical" name="EVENONLYGW"> F  </i>
   <i type="int" name="NKREDLFX">     1</i>
   <i type="int" name="NKREDLFY">     1</i>
   <i type="int" name="NKREDLFZ">     1</i>
   <i type="int" name="MAXMEM">  2800</i>
   <i type="int" name="TELESCOPE">     0</i>
   <i type="int" name="NTAUPAR">    -1</i>
   <i type="int" name="NOMEGAPAR">    -1</i>
   <i name="DAMP_NEWTON">      0.80000001</i>
   <i name="LAMBDA">      1.00000000</i>
  </separator>
  <separator name="External order field" >
   <i name="OFIELD_KAPPA">      0.00000000</i>
   <v name="OFIELD_K">      0.00000000      0.00000000      0.00000000</v>
   <i name="OFIELD_Q6_NEAR">      0.00000000</i>
   <i name="OFIELD_Q6_FAR">      0.00000000</i>
   <i name="OFIELD_A">      0.00000000</i>
  </separator>
  <separator name="optional k-points parameters" >
   <i type="int" name="KPOINTS_OPT_MODE">     1</i>
   <i type="logical" name="LKPOINTS_OPT"> F  </i>
  </separator>
 </parameters>
 <atominfo>
  <atoms>       3 </atoms>
  <types>       2 </types>
  <array name="atoms" >
   <dimension dim="1">ion</dimension>
   <field type="string">element</field>
   <field type="int">atomtype</field>
   <set>
    <rc><c>O </c><c>   1</c></rc>
    <rc><c>H </c><c>   2</c></rc>
    <rc><c>H </c><c>   2</c></rc>
   </set>
  </array>
  <array name="atomtypes" >
   <dimension dim="1">type</dimension>
   <field type="int">atomspertype</field>
   <field type="string">element</field>
   <field>mass</field>
   <field>valence</field>
   <field type="string">pseudopotential</field>
   <set>
    <rc><c>   1</c><c>O </c><c>     16.00000000</c><c>      6.00000000</c><c> PAW_RPBE O 08Apr2002                   </c></rc>
    <rc><c>   2</c><c>H </c><c>      1.00000000</c><c>      1.00000000</c><c> PAW_RPBE H 15Jun2001                   </c></rc>
   </set>
  </array>
 </atominfo>
 <structure name="initialpos" >
  <crystal>
   <varray name="basis" >
    <v>       7.93770000       0.00000000       0.00000000 </v>
    <v>       0.00000000       7.93770000       0.00000000 </v>
    <v>       0.00000000       0.00000000       7.93770000 </v>
   </varray>
   <i name="volume">    500.13130916 </i>
   <varray name="rec_basis" >
    <v>       0.12598108       0.00000000       0.00000000 </v>
    <v>       0.00000000       0.12598108       0.00000000 </v>
    <v>       0.00000000       0.00000000       0.12598108 </v>
   </varray>
  </crystal>
  <varray name="positions" >
   <v>       0.00000000       0.00000000       0.00000000 </v>
   <v>       0.07333333       0.90466667       0.00000000 </v>
   <v>       0.07333333       0.09533333       0.00000000 </v>
  </varray>
  <varray name="selective"  type="logical" >
   <v type="logical" >  F  F  F </v>
   <v type="logical" >  T  T  F </v>
   <v type="logical" >  T  T  F </v>
  </varray>
  <nose>
   <v>      -3.00000000       0.00000000       0.00010000       0.00010000 </v>
  </nose>
 </structure>
 <calculation>
  <scstep>
   <time name="dav">    0.13    0.13</time>
   <time name="total">    0.67    0.67</time>
   <energy>
    <i name="alphaZ">      0.44832783 </i>
    <i name="ewald">     26.60306768 </i>
    <i name="hartreedc">   -386.12288572 </i>
    <i name="XCdc">     32.30058055 </i>
    <i name="pawpsdc">    247.56105404 </i>
    <i name="pawaedc">   -249.42875511 </i>
    <i name="eentropy">     -0.00000002 </i>
    <i name="bandstr">    -55.00958945 </i>
    <i name="atom">    457.34605176 </i>
    <i name="e_fr_energy">     73.69785156 </i>
    <i name="e_wo_entrp">     73.69785157 </i>
    <i name="e_0_energy">     73.69785156 </i>
   </energy>
  </scstep>
  <scstep>
   <time name="dav">    0.17    0.17</time>
   <time name="total">    0.17    0.17</time>
   <energy>
    <i name="e_fr_energy">      6.66130274 </i>
    <i name="e_wo_entrp">      6.66130274 </i>
    <i name="e_0_energy">      6.66130274 </i>
   </energy>
  </scstep>
  <scstep>
   <time name="dav">    0.12    0.12</time>
   <time name="total">    0.12    0.12</time>
   <energy>
    <i name="e_fr_energy">    -15.91253721 </i>
    <i name="e_wo_entrp">    -15.91253721 </i>
    <i name="e_0_energy">    -15.91253721 </i>
   </energy>
  </scstep>
  <scstep>
   <time name="dav">    0.09    0.09</time>
   <time name="total">    0.09    0.09</time>
   <energy>
    <i name="e_fr_energy">    -16.36263670 </i>
    <i name="e_wo_entrp">    -16.36263670 </i>
    <i name="e_0_energy">    -16.36263670 </i>
   </energy>
  </scstep>
  <scstep>
   <time name="dav">    0.15    0.15</time>
   <time name="total">    0.23    0.23</time>
   <energy>
    <i name="e_fr_energy">    -16.36587758 </i>
    <i name="e_wo_entrp">    -16.36587758 </i>
    <i name="e_0_energy">    -16.36587758 </i>
   </energy>
  </scstep>
  <scstep>
   <time name="dav">    0.11    0.11</time>
   <time name="total">    0.68    0.68</time>
   <energy>
    <i name="e_fr_energy">    -14.40357347 </i>
    <i name="e_wo_entrp">    -14.40357347 </i>
    <i name="e_0_energy">    -14.40357347 </i>
   </energy>
  </scstep>
  <scstep>
   <time name="dav">    0.16    0.16</time>
   <time name="total">    0.71    0.71</time>
   <energy>
    <i name="e_fr_energy">    -14.28982706 </i>
    <i name="e_wo_entrp">    -14.28982706 </i>
    <i name="e_0_energy">    -14.28982706 </i>
   </energy>
  </scstep>
  <scstep>
   <time name="dav">    0.09    0.09</time>
   <time name="total">    0.62    0.63</time>
   <energy>
    <i name="e_fr_energy">    -14.19916952 </i>
    <i name="e_wo_entrp">    -14.19916952 </i>
    <i name="e_0_energy">    -14.19916952 </i>
   </energy>
  </scstep>
  <scstep>
   <time name="dav">    0.12    0.12</time>
   <time name="total">    0.66    0.66</time>
   <energy>
    <i name="e_fr_energy">    -14.20405643 </i>
    <i name="e_wo_entrp">    -14.20405643 </i>
    <i name="e_0_energy">    -14.20405643 </i>
   </energy>
  </scstep>
  <scstep>
   <time name="dav">    0.09    0.09</time>
   <time name="total">    0.61    0.61</time>
   <energy>
    <i name="e_fr_energy">    -14.21238914 </i>
    <i name="e_wo_entrp">    -14.21238914 </i>
    <i name="e_0_energy">    -14.21238914 </i>
   </energy>
  </scstep>
  <scstep>
   <time name="dav">    0.08    0.08</time>
   <time name="total">    0.57    0.57</time>
   <energy>
    <i name="e_fr_energy">    -14.21740027 </i>
    <i name="e_wo_entrp">    -14.21740027 </i>
    <i name="e_0_energy">    -14.21740027 </i>
   </energy>
  </scstep>
  <scstep>
   <time name="dav">    0.14    0.14</time>
   <time name="total">    0.61    0.61</time>
   <energy>
    <i name="e_fr_energy">    -14.22062395 </i>
    <i name="e_wo_entrp">    -14.22062395 </i>
    <i name="e_0_energy">    -14.22062395 </i>
   </energy>
  </scstep>
  <scstep>
   <time name="dav">    0.10    0.10</time>
   <time name="total">    0.58    0.58</time>
   <energy>
    <i name="e_fr_energy">    -14.22164634 </i>
    <i name="e_wo_entrp">    -14.22164634 </i>
    <i name="e_0_energy">    -14.22164634 </i>
   </energy>
  </scstep>
  <scstep>
   <time name="dav">    0.15    0.15</time>
   <time name="total">    0.63    0.64</time>
   <energy>
    <i name="e_fr_energy">    -14.22182882 </i>
    <i name="e_wo_entrp">    -14.22182882 </i>
    <i name="e_0_energy">    -14.22182882 </i>
   </energy>
  </scstep>
  <scstep>
   <time name="dav">    0.12    0.13</time>
   <time name="total">    0.53    0.53</time>
   <energy>
    <i name="alphaZ">      0.44832783 </i>
    <i name="ewald">     26.60306768 </i>
    <i name="hartreedc">   -421.59092259 </i>
    <i name="XCdc">     34.21373574 </i>
    <i name="pawpsdc">    330.16518312 </i>
    <i name="pawaedc">   -332.32542981 </i>
    <i name="eentropy">     -0.00000000 </i>
    <i name="bandstr">   -109.08193963 </i>
    <i name="atom">    457.34605176 </i>
    <i name="e_fr_energy">    -14.22192590 </i>
    <i name="e_wo_entrp">    -14.22192590 </i>
    <i name="e_0_energy">    -14.22192590 </i>
   </energy>
  </scstep>
  <structure>
   <crystal>
    <varray name="basis" >
     <v>       7.93770000       0.00000000       0.00000000 </v>
     <v>       0.00000000       7.93770000       0.00000000 </v>
     <v>       0.00000000       0.00000000       7.93770000 </v>
    </varray>
    <i name="volume">    500.13130916 </i>
    <varray name="rec_basis" >
     <v>       0.12598108       0.00000000       0.00000000 </v>
     <v>       0.00000000       0.12598108       0.00000000 </v>
     <v>       0.00000000       0.00000000       0.12598108 </v>
    </varray>
   </crystal>
   <varray name="positions" >
    <v>       0.00000000       0.00000000       0.00000000 </v>
    <v>       0.07333333       0.90466667       0.00000000 </v>
    <v>       0.07333333       0.09533333       0.00000000 </v>
   </varray>
  </structure>
  <varray name="forces" >
   <v>      -1.03961515       0.00000000       0.00000000 </v>
   <v>       0.51980757      -0.71208238       0.00000000 </v>
   <v>       0.51980757       0.71208238      -0.00000000 </v>
  </varray>
  <varray name="stress" >
   <v>       1.67143246       0.00000000       0.00000000 </v>
   <v>       0.00000000       3.30545581       0.00000000 </v>
   <v>       0.00000000       0.00000000      -0.11109001 </v>
  </varray>
  <energy>
   <i name="e_fr_energy">    -14.22192590 </i>
   <i name="e_wo_entrp">    -14.22192590 </i>
   <i name="e_0_energy">    -14.22192590 </i>
  </energy>
  <time name="totalsc">    9.38    9.43</time>
 </calculation>
 <calculation>
  <scstep>
   <time name="dav">    0.10    0.10</time>
   <time name="total">    0.54    0.54</time>
   <energy>
    <i name="alphaZ">      0.44832783 </i>
    <i name="ewald">     18.54672654 </i>
    <i name="hartreedc">   -417.37844177 </i>
    <i name="XCdc">     34.00824897 </i>
    <i name="pawpsdc">    330.17934903 </i>
    <i name="pawaedc">   -332.33957179 </i>
    <i name="eentropy">     -0.00000000 </i>
    <i name="bandstr">   -105.02920771 </i>
    <i name="atom">    457.34605176 </i>
    <i name="e_fr_energy">    -14.21851714 </i>
    <i name="e_wo_entrp">    -14.21851714 </i>
    <i name="e_0_energy">    -14.21851714 </i>
   </energy>
  </scstep>
  <scstep>
   <time name="dav">    0.11    0.11</time>
   <time name="total">    0.52    0.52</time>
   <energy>
    <i name="e_fr_energy">    -14.20603407 </i>
    <i name="e_wo_entrp">    -14.20603407 </i>
    <i name="e_0_energy">    -14.20603407 </i>
   </energy>
  </scstep>
  <scstep>
   <time name="dav">    0.11    0.12</time>
   <time name="total">    0.46    0.46</time>
   <energy>
    <i name="e_fr_energy">    -14.20552719 </i>
    <i name="e_wo_entrp">    -14.20552719 </i>
    <i name="e_0_energy">    -14.20552719 </i>
   </energy>
  </scstep>
  <scstep>
   <time name="dav">    0.11    0.11</time>
   <time name="total">    0.43    0.43</time>
   <energy>
    <i name="alphaZ">      0.44832783 </i>
    <i name="ewald">     18.54672654 </i>
    <i name="hartreedc">   -415.32898865 </i>
    <i name="XCdc">     33.89474318 </i>
    <i name="pawpsdc">    319.08038653 </i>
    <i name="pawaedc">   -321.18885158 </i>
    <i name="eentropy">     -0.00000000 </i>
    <i name="bandstr">   -107.00383040 </i>
    <i name="atom">    457.34605176 </i>
    <i name="e_fr_energy">    -14.20543479 </i>
    <i name="e_wo_entrp">    -14.20543479 </i>
    <i name="e_0_energy">    -14.20543479 </i>
   </energy>
  </scstep>
  <structure>
   <crystal>
    <varray name="basis" >
     <v>       7.93770000       0.00000000       0.00000000 </v>
     <v>       0.00000000       7.93770000       0.00000000 </v>
     <v>       0.00000000       0.00000000       7.93770000 </v>
    </varray>
    <i name="volume">    500.13130916 </i>
    <varray name="rec_basis" >
     <v>       0.12598108       0.00000000       0.00000000 </v>
     <v>       0.00000000       0.12598108       0.00000000 </v>
     <v>       0.00000000       0.00000000       0.12598108 </v>
    </varray>
   </crystal>
   <varray name="positions" >
    <v>       0.00000000       0.00000000       0.00000000 </v>
    <v>       0.07649255       0.90033887       0.00000000 </v>
    <v>       0.07649255       0.09966113       0.00000000 </v>
   </varray>
  </structure>
  <varray name="forces" >
   <v>       1.21394028       0.00000000       0.00000000 </v>
   <v>      -0.60697014       0.99203208      -0.00000000 </v>
   <v>      -0.60697014      -0.99203208       0.00000000 </v>
  </varray>
  <varray name="stress" >
   <v>      -2.75707150       0.00000000       0.00000000 </v>
   <v>       0.00000000      -5.33822803       0.00000000 </v>
   <v>       0.00000000       0.00000000      -0.31104259 </v>
  </varray>
  <energy>
   <i name="e_fr_energy">    -14.20543479 </i>
   <i name="e_wo_entrp">    -14.20543479 </i>
   <i name="e_0_energy">    -14.20543479 </i>
  </energy>
  <time name="totalsc">    2.66    2.66</time>
 </calculation>
 <calculation>
  <scstep>
   <time name="dav">    0.08    0.08</time>
   <time name="total">    0.44    0.44</time>
   <energy>
    <i name="alphaZ">      0.44832783 </i>
    <i name="ewald">     23.02952917 </i>
    <i name="hartreedc">   -417.63945825 </i>
    <i name="XCdc">     34.00710364 </i>
    <i name="pawpsdc">    318.71251572 </i>
    <i name="pawaedc">   -320.81856788 </i>
    <i name="eentropy">     -0.00000000 </i>
    <i name="bandstr">   -109.32558893 </i>
    <i name="atom">    457.34605176 </i>
    <i name="e_fr_energy">    -14.24008695 </i>
    <i name="e_wo_entrp">    -14.24008695 </i>
    <i name="e_0_energy">    -14.24008695 </i>
   </energy>
  </scstep>
  <scstep>
   <time name="dav">    0.10    0.10</time>
   <time name="total">    0.47    0.47</time>
   <energy>
    <i name="e_fr_energy">    -14.23658528 </i>
    <i name="e_wo_entrp">    -14.23658528 </i>
    <i name="e_0_energy">    -14.23658528 </i>
   </energy>
  </scstep>
  <scstep>
   <time name="dav">    0.08    0.08</time>
   <time name="total">    0.45    0.45</time>
   <energy>
    <i name="e_fr_energy">    -14.23640407 </i>
    <i name="e_wo_entrp">    -14.23640407 </i>
    <i name="e_0_energy">    -14.23640407 </i>
   </energy>
  </scstep>
  <scstep>
   <time name="dav">    0.07    0.07</time>
   <time name="total">    0.42    0.42</time>
   <energy>
    <i name="alphaZ">      0.44832783 </i>
    <i name="ewald">     23.02952917 </i>
    <i name="hartreedc">   -418.78221458 </i>
    <i name="XCdc">     34.06963974 </i>
    <i name="pawpsdc">    324.58381793 </i>
    <i name="pawaedc">   -326.71740818 </i>
    <i name="eentropy">     -0.00000000 </i>
    <i name="bandstr">   -108.21414452 </i>
    <i name="atom">    457.34605176 </i>
    <i name="e_fr_energy">    -14.23640086 </i>
    <i name="e_wo_entrp">    -14.23640086 </i>
    <i name="e_0_energy">    -14.23640086 </i>
   </energy>
  </scstep>
  <structure>
   <crystal>
    <varray name="basis" >
     <v>       7.93770000       0.00000000       0.00000000 </v>
     <v>       0.00000000       7.93770000       0.00000000 </v>
     <v>       0.00000000       0.00000000       7.93770000 </v>
    </varray>
    <i name="volume">    500.13130916 </i>
    <varray name="rec_basis" >
     <v>       0.12598108       0.00000000       0.00000000 </v>
     <v>       0.00000000       0.12598108       0.00000000 </v>
     <v>       0.00000000       0.00000000       0.12598108 </v>
    </varray>
   </crystal>
   <varray name="positions" >
    <v>       0.00000000       0.00000000       0.00000000 </v>
    <v>       0.07490230       0.90293796       0.00000000 </v>
    <v>       0.07490230       0.09706204       0.00000000 </v>
   </varray>
  </structure>
  <varray name="forces" >
   <v>       0.04417766      -0.00000000       0.00000000 </v>
   <v>      -0.02208883       0.08093490       0.00000000 </v>
   <v>      -0.02208883      -0.08093490      -0.00000000 </v>
  </varray>
  <varray name="stress" >
   <v>      -0.23403886       0.00000000       0.00000000 </v>
   <v>       0.00000000      -0.40811453       0.00000000 </v>
   <v>       0.00000000       0.00000000       0.05765236 </v>
  </varray>
  <energy>
   <i name="e_fr_energy">    -14.23640086 </i>
   <i name="e_wo_entrp">    -14.23640086 </i>
   <i name="e_0_energy">    -14.23640086 </i>
  </energy>
  <time name="totalsc">    2.49    2.50</time>
 </calculation>
 <calculation>
  <scstep>
   <time name="dav">    0.14    0.14</time>
   <time name="total">    0.53    0.53</time>
   <energy>
    <i name="alphaZ">      0.44832783 </i>
    <i name="ewald">     23.35833552 </i>
    <i name="hartreedc">   -418.99972477 </i>
    <i name="XCdc">     34.08065572 </i>
    <i name="pawpsdc">    324.89150726 </i>
    <i name="pawaedc">   -327.02694553 </i>
    <i name="eentropy">     -0.00000000 </i>
    <i name="bandstr">   -108.33477990 </i>
    <i name="atom">    457.34605176 </i>
    <i name="e_fr_energy">    -14.23657212 </i>
    <i name="e_wo_entrp">    -14.23657212 </i>
    <i name="e_0_energy">    -14.23657212 </i>
   </energy>
  </scstep>
  <scstep>
   <time name="dav">    0.10    0.10</time>
   <time name="total">    0.44    0.44</time>
   <energy>
    <i name="alphaZ">      0.44832783 </i>
    <i name="ewald">     23.35833552 </i>
    <i name="hartreedc">   -419.06499179 </i>
    <i name="XCdc">     34.08429943 </i>
    <i name="pawpsdc">    325.14429751 </i>
    <i name="pawaedc">   -327.28075820 </i>
    <i name="eentropy">     -0.00000000 </i>
    <i name="bandstr">   -108.27212481 </i>
    <i name="atom">    457.34605176 </i>
    <i name="e_fr_energy">    -14.23656275 </i>
    <i name="e_wo_entrp">    -14.23656275 </i>
    <i name="e_0_energy">    -14.23656275 </i>
   </energy>
  </scstep>
  <structure>
   <crystal>
    <varray name="basis" >
     <v>       7.93770000       0.00000000       0.00000000 </v>
     <v>       0.00000000       7.93770000       0.00000000 </v>
     <v>       0.00000000       0.00000000       7.93770000 </v>
    </varray>
    <i name="volume">    500.13130916 </i>
    <varray name="rec_basis" >
     <v>       0.12598108       0.00000000       0.00000000 </v>
     <v>       0.00000000       0.12598108       0.00000000 </v>
     <v>       0.00000000       0.00000000       0.12598108 </v>
    </varray>
   </crystal>
   <varray name="positions" >
    <v>       0.00000000       0.00000000       0.00000000 </v>
    <v>       0.07491329       0.90321264       0.00000000 </v>
    <v>       0.07491329       0.09678736       0.00000000 </v>
   </varray>
  </structure>
  <varray name="forces" >
   <v>      -0.03003173       0.00000000      -0.00000000 </v>
   <v>       0.01501587      -0.00195180      -0.00000000 </v>
   <v>       0.01501587       0.00195180       0.00000000 </v>
  </varray>
  <varray name="stress" >
   <v>      -0.19514706       0.00000000       0.00000000 </v>
   <v>       0.00000000      -0.14150049       0.00000000 </v>
   <v>       0.00000000       0.00000000      -0.07415764 </v>
  </varray>
  <energy>
   <i name="e_fr_energy">    -14.23656275 </i>
   <i name="e_wo_entrp">    -14.23656275 </i>
   <i name="e_0_energy">    -14.23656275 </i>
  </energy>
  <time name="totalsc">    1.58    1.59</time>
  <eigenvalues>
   <array>
    <dimension dim="1">band</dimension>
    <dimension dim="2">kpoint</dimension>
    <dimension dim="3">spin</dimension>
    <field>eigene</field>
    <field>occ</field>
    <set>
     <set comment="spin 1">
      <set comment="kpoint 1">
       <r>  -25.1161    1.0000 </r>
       <r>  -12.9203    1.0000 </r>
       <r>   -9.0831    1.0000 </r>
       <r>   -7.0165    1.0000 </r>
       <r>   -1.0773    0.0000 </r>
       <r>    1.1209    0.0000 </r>
       <r>    1.2362    0.0000 </r>
       <r>    1.7495    0.0000 </r>
      </set>
     </set>
    </set>
   </array>
  </eigenvalues>
  <separator name="orbital magnetization" >
   <v name="MAGDIPOLOUT">      0.00000000      0.00000000      0.00000000</v>
  </separator>
 </calculation>
 <structure name="finalpos" >
  <crystal>
   <varray name="basis" >
    <v>       7.93770000       0.00000000       0.00000000 </v>
    <v>       0.00000000       7.93770000       0.00000000 </v>
    <v>       0.00000000       0.00000000       7.93770000 </v>
   </varray>
   <i name="volume">    500.13130916 </i>
   <varray name="rec_basis" >
    <v>       0.12598108       0.00000000       0.00000000 </v>
    <v>       0.00000000       0.12598108       0.00000000 </v>
    <v>       0.00000000       0.00000000       0.12598108 </v>
   </varray>
  </crystal>
  <varray name="positions" >
   <v>       0.00000000       0.00000000       0.00000000 </v>
   <v>       0.07491329       0.90321264       0.00000000 </v>
   <v>       0.07491329       0.09678736       0.00000000 </v>
  </varray>
  <varray name="selective"  type="logical" >
   <v type="logical" >  F  F  F </v>
   <v type="logical" >  T  T  F </v>
   <v type="logical" >  T  T  F </v>
  </varray>
  <nose>
   <v>      -3.00000000       0.00000000       0.00010000       0.00010000 </v>
  </nose>
 </structure>
</modeling>
