unknown system                          
           1
     7.937700    0.000000    0.000000
     0.000000    7.937700    0.000000
     0.000000    0.000000    7.937700
   O    H 
     1     2
Direct configuration=     1
   0.00000000  0.00000000  0.00000000
   0.07333333  0.90466667  0.00000000
   0.07333333  0.09533333  0.00000000
Direct configuration=     2
   0.00000000  0.00000000  0.00000000
   0.07649255  0.90033887  0.00000000
   0.07649255  0.09966113  0.00000000
Direct configuration=     3
   0.00000000  0.00000000  0.00000000
   0.07490230  0.90293796  0.00000000
   0.07490230  0.09706204  0.00000000
Direct configuration=     4
   0.00000000  0.00000000  0.00000000
   0.07491329  0.90321264  0.00000000
   0.07491329  0.09678736  0.00000000
