fcc Si                                  
   4.30000000000000     
     0.500000    0.500000    0.000000
     0.000000    0.500000    0.500000
     0.500000    0.000000    0.500000
   Si
     1
Direct
  0.000000  0.000000  0.000000
 
   24   24   24
 -3.2536     -2.3634     -.21796E-01  2.9357      5.5424      7.1004      7.4156      6.7824      5.7641      4.8232    
  4.1070      3.6685      3.5220      3.6685      4.1070      4.8232      5.7641      6.7824      7.4156      7.1004    
  5.5424      2.9357     -.21796E-01 -2.3634     -2.3634     -.75015      1.8802      4.6103      6.6019      7.4209    
  7.1433      6.2267      5.2211      4.3917      3.8183      3.5294      3.5294      3.8183      4.3917      5.2212    
  6.2267      7.1434      7.4210      6.6021      4.6105      1.8804     -.75008     -2.3633     -.21796E-01  1.8802    
  4.2412      6.2428      7.3120      7.3209      6.5636      5.5505      4.6462      3.9642      3.5488      3.4103    
  3.5488      3.9642      4.6462      5.5504      6.5637      7.3211      7.3123      6.2431      4.2416      1.8806    
 -.21615E-01 -.75008      2.9357      4.6103      6.2428      7.2526      7.3811      6.7581      5.7838      4.8463    
  4.0900      3.5736      3.3152      3.3152      3.5736      4.0900      4.8462      5.7837      6.7581      7.3812    
  7.2529      6.2432      4.6107      2.9361      1.8806      1.8804      5.5424      6.6019      7.3120      7.3811    
  6.8203      5.9042      4.9734      4.1817      3.5966      3.2442      3.1273      3.2442      3.5966      4.1816    
  4.9733      5.9041      6.8202      7.3812      7.3122      6.6022      5.5428      4.6107      4.2416      4.6105    
  7.1004      7.4209      7.3209      6.7581      5.9042      5.0169      4.2297      3.6121      3.1968      2.9904    
  2.9904      3.1968      3.6122      4.2297      5.0168      5.9041      6.7580      7.3209      7.4210      7.1005    
  6.6022      6.2432      6.2431      6.6021      7.4156      7.1433      6.5636      5.7838      4.9734      4.2297    
  3.6175      3.1729      2.9072      2.8193      2.9072      3.1730      3.6177      4.2298      4.9734      5.7837    
  6.5636      7.1433      7.4155      7.4210      7.3122      7.2529      7.3123      7.4210      6.7824      6.2267    
  5.5505      4.8463      4.1817      3.6121      3.1729      2.8792      2.7334      2.7334      2.8793      3.1730    
  3.6123      4.1818      4.8464      5.5505      6.2267      6.7823      7.1433      7.3209      7.3812      7.3812    
  7.3211      7.1434      5.7641      5.2211      4.6462      4.0900      3.5966      3.1968      2.9072      2.7334    
  2.6756      2.7333      2.9071      3.1968      3.5967      4.0902      4.6465      5.2213      5.7641      6.2267    
  6.5636      6.7580      6.8202      6.7581      6.5637      6.2267      4.8232      4.3917      3.9642      3.5736    
  3.2442      2.9904      2.8193      2.7334      2.7333      2.8191      2.9902      3.2441      3.5737      3.9644    
  4.3919      4.8233      5.2213      5.5505      5.7837      5.9041      5.9041      5.7837      5.5504      5.2212    
  4.1070      3.8183      3.5488      3.3152      3.1273      2.9904      2.9072      2.8793      2.9071      2.9902    
  3.1271      3.3150      3.5487      3.8183      4.1071      4.3919      4.6465      4.8464      4.9734      5.0168    
  4.9733      4.8462      4.6462      4.3917      3.6685      3.5294      3.4103      3.3152      3.2442      3.1968    
  3.1730      3.1730      3.1968      3.2441      3.3150      3.4101      3.5292      3.6684      3.8183      3.9644    
  4.0902      4.1818      4.2298      4.2297      4.1816      4.0900      3.9642      3.8183      3.5220      3.5294    
  3.5488      3.5736      3.5966      3.6122      3.6177      3.6123      3.5967      3.5737      3.5487      3.5292    
  3.5217      3.5292      3.5487      3.5737      3.5967      3.6123      3.6177      3.6122      3.5966      3.5736    
  3.5488      3.5294      3.6685      3.8183      3.9642      4.0900      4.1816      4.2297      4.2298      4.1818    
  4.0902      3.9644      3.8183      3.6684      3.5292      3.4101      3.3150      3.2441      3.1968      3.1730    
  3.1730      3.1968      3.2442      3.3152      3.4103      3.5294      4.1070      4.3917      4.6462      4.8462    
  4.9733      5.0168      4.9734      4.8464      4.6465      4.3919      4.1071      3.8183      3.5487      3.3150    
  3.1271      2.9902      2.9071      2.8793      2.9072      2.9904      3.1273      3.3152      3.5488      3.8183    
  4.8232      5.2212      5.5504      5.7837      5.9041      5.9041      5.7837      5.5505      5.2213      4.8233    
  4.3919      3.9644      3.5737      3.2441      2.9902      2.8191      2.7333      2.7334      2.8193      2.9904    
  3.2442      3.5736      3.9642      4.3917      5.7641      6.2267      6.5637      6.7581      6.8202      6.7580    
  6.5636      6.2267      5.7641      5.2213      4.6465      4.0902      3.5967      3.1968      2.9071      2.7333    
  2.6756      2.7334      2.9072      3.1968      3.5966      4.0900      4.6462      5.2211      6.7824      7.1434    
  7.3211      7.3812      7.3812      7.3209      7.1433      6.7823      6.2267      5.5505      4.8464      4.1818    
  3.6123      3.1730      2.8793      2.7334      2.7334      2.8792      3.1729      3.6121      4.1817      4.8463    
  5.5505      6.2267      7.4156      7.4210      7.3123      7.2529      7.3122      7.4210      7.4155      7.1433    
  6.5636      5.7837      4.9734      4.2298      3.6177      3.1730      2.9072      2.8193      2.9072      3.1729    
  3.6175      4.2297      4.9734      5.7838      6.5636      7.1433      7.1004      6.6021      6.2431      6.2432    
  6.6022      7.1005      7.4210      7.3209      6.7580      5.9041      5.0168      4.2297      3.6122      3.1968    
  2.9904      2.9904      3.1968      3.6121      4.2297      5.0169      5.9042      6.7581      7.3209      7.4209    
  5.5424      4.6105      4.2416      4.6107      5.5428      6.6022      7.3122      7.3812      6.8202      5.9041    
  4.9733      4.1816      3.5966      3.2442      3.1273      3.2442      3.5966      4.1817      4.9734      5.9042    
  6.8203      7.3811      7.3120      6.6019      2.9357      1.8804      1.8806      2.9361      4.6107      6.2432    
  7.2529      7.3812      6.7581      5.7837      4.8462      4.0900      3.5736      3.3152      3.3152      3.5736    
  4.0900      4.8463      5.7838      6.7581      7.3811      7.2526      6.2428      4.6103     -.21796E-01 -.75008    
 -.21615E-01  1.8806      4.2416      6.2431      7.3123      7.3211      6.5637      5.5504      4.6462      3.9642    
  3.5488      3.4103      3.5488      3.9642      4.6462      5.5505      6.5636      7.3209      7.3120      6.2428    
  4.2412      1.8802     -2.3634     -2.3633     -.75008      1.8804      4.6105      6.6021      7.4210      7.1434    
  6.2267      5.2212      4.3917      3.8183      3.5294      3.5294      3.8183      4.3917      5.2211      6.2267    
  7.1433      7.4209      6.6019      4.6103      1.8802     -.75015     -2.3634     -.75015      1.8802      4.6103    
  6.6019      7.4209      7.1433      6.2267      5.2211      4.3917      3.8183      3.5294      3.5294      3.8183    
  4.3917      5.2212      6.2267      7.1434      7.4210      6.6021      4.6105      1.8804     -.75008     -2.3633    
 -.75015      1.2945      3.8480      6.0434      7.2675      7.3715      6.6505      5.6330      4.7157      4.0218    
  3.5985      3.4573      3.5985      4.0217      4.7157      5.6330      6.6505      7.3716      7.2678      6.0438    
  3.8483      1.2947     -.75003     -1.5311      1.8802      3.8480      5.8140      7.1177      7.4474      6.9184    
  5.9509      4.9885      4.2070      3.6713      3.4027      3.4027      3.6713      4.2069      4.9884      5.9509    
  6.9184      7.4476      7.1181      5.8145      3.8484      1.8806     0.65311     0.65298      4.6103      6.0434    
  7.1177      7.4595      7.0421      6.1501      5.1846      4.3544      3.7371      3.3642      3.2404      3.3642    
  3.7371      4.3543      5.1845      6.1499      7.0420      7.4597      7.1181      6.0439      4.6108      3.3973    
  2.9234      3.3970      6.6019      7.2675      7.4474      7.0421      6.2173      5.2869      4.4489      3.7862    
  3.3387      3.1161      3.1161      3.3388      3.7862      4.4489      5.2868      6.2171      7.0420      7.4474    
  7.2677      6.6022      5.7876      5.2393      5.2392      5.7874      7.4209      7.3715      6.9184      6.1501    
  5.2869      4.4814      3.8121      3.3239      3.0318      2.9352      3.0319      3.3240      3.8122      4.4814    
  5.2868      6.1499      6.9182      7.3714      7.4209      7.1705      6.8584      6.7217      6.8584      7.1704    
  7.1433      6.6505      5.9509      5.1846      4.4489      3.8121      3.3190      2.9893      2.8256      2.8257    
  2.9894      3.3192      3.8123      4.4490      5.1847      5.9509      6.6504      7.1432      7.3752      7.4119    
  7.3812      7.3813      7.4120      7.3753      6.2267      5.6330      4.9885      4.3544      3.7862      3.3239    
  2.9893      2.7889      2.7225      2.7890      2.9893      3.3241      3.7864      4.3546      4.9886      5.6330    
  6.2266      6.6963      6.9964      7.1455      7.1879      7.1456      6.9966      6.6964      5.2211      4.7157    
  4.2070      3.7371      3.3387      3.0318      2.8256      2.7225      2.7225      2.8256      3.0318      3.3388    
  3.7373      4.2072      4.7159      5.2213      5.6787      6.0495      6.3039      6.4299      6.4299      6.3040    
  6.0495      5.6787      4.3917      4.0218      3.6713      3.3642      3.1161      2.9352      2.8257      2.7890    
  2.8256      2.9350      3.1159      3.3641      3.6714      4.0219      4.3919      4.7509      5.0668      5.3116    
  5.4656      5.5180      5.4656      5.3115      5.0666      4.7507      3.8183      3.5985      3.4027      3.2404    
  3.1161      3.0319      2.9894      2.9893      3.0318      3.1159      3.2402      3.4025      3.5984      3.8183    
  4.0467      4.2632      4.4464      4.5783      4.6469      4.6469      4.5780      4.4461      4.2630      4.0466    
  3.5294      3.4573      3.4027      3.3642      3.3388      3.3240      3.3192      3.3241      3.3388      3.3641    
  3.4025      3.4570      3.5291      3.6162      3.7100      3.7987      3.8707      3.9170      3.9328      3.9168    
  3.8704      3.7985      3.7099      3.6163      3.5294      3.5985      3.6713      3.7371      3.7862      3.8122    
  3.8123      3.7864      3.7373      3.6714      3.5984      3.5291      3.4724      3.4317      3.4058      3.3904    
  3.3818      3.3777      3.3777      3.3817      3.3904      3.4059      3.4319      3.4726      3.8183      4.0217    
  4.2069      4.3543      4.4489      4.4814      4.4490      4.3546      4.2072      4.0219      3.8183      3.6162    
  3.4317      3.2750      3.1506      3.0606      3.0059      2.9875      3.0059      3.0607      3.1509      3.2752    
  3.4319      3.6163      4.3917      4.7157      4.9884      5.1845      5.2868      5.2868      5.1847      4.9886    
  4.7159      4.3919      4.0467      3.7100      3.4058      3.1506      2.9542      2.8213      2.7543      2.7544    
  2.8214      2.9544      3.1508      3.4059      3.7099      4.0466      5.2212      5.6330      5.9509      6.1499    
  6.2171      6.1499      5.9509      5.6330      5.2213      4.7509      4.2632      3.7987      3.3904      3.0606    
  2.8213      2.6771      2.6291      2.6772      2.8214      3.0607      3.3904      3.7985      4.2630      4.7507    
  6.2267      6.6505      6.9184      7.0420      7.0420      6.9182      6.6504      6.2266      5.6787      5.0668    
  4.4464      3.8707      3.3818      3.0059      2.7543      2.6291      2.6291      2.7543      3.0058      3.3816    
  3.8705      4.4462      5.0666      5.6787      7.1434      7.3716      7.4476      7.4597      7.4474      7.3714    
  7.1432      6.6963      6.0495      5.3116      4.5783      3.9170      3.3777      2.9875      2.7544      2.6772    
  2.7543      2.9874      3.3776      3.9168      4.5781      5.3116      6.0495      6.6964      7.4210      7.2678    
  7.1181      7.1181      7.2677      7.4209      7.3752      6.9964      6.3039      5.4656      4.6469      3.9328    
  3.3777      3.0059      2.8214      2.8214      3.0058      3.3776      3.9327      4.6469      5.4657      6.3040    
  6.9966      7.3753      6.6021      6.0438      5.8145      6.0439      6.6022      7.1705      7.4119      7.1455    
  6.4299      5.5180      4.6469      3.9168      3.3817      3.0607      2.9544      3.0607      3.3816      3.9168    
  4.6469      5.5181      6.4300      7.1456      7.4119      7.1704      4.6105      3.8483      3.8484      4.6108    
  5.7876      6.8584      7.3812      7.1879      6.4299      5.4656      4.5780      3.8704      3.3904      3.1509    
  3.1508      3.3904      3.8705      4.5781      5.4657      6.4300      7.1879      7.3812      6.8582      5.7874    
  1.8804      1.2947      1.8806      3.3973      5.2393      6.7217      7.3813      7.1456      6.3040      5.3115    
  4.4461      3.7985      3.4059      3.2752      3.4059      3.7985      4.4462      5.3116      6.3040      7.1456    
  7.3812      6.7214      5.2390      3.3970     -.75008     -.75003     0.65311      2.9234      5.2392      6.8584    
  7.4120      6.9966      6.0495      5.0666      4.2630      3.7099      3.4319      3.4319      3.7099      4.2630    
  5.0666      6.0495      6.9966      7.4119      6.8582      5.2390      2.9232     0.65298     -2.3633     -1.5311    
 0.65298      3.3970      5.7874      7.1704      7.3753      6.6964      5.6787      4.7507      4.0466      3.6163    
  3.4726      3.6163      4.0466      4.7507      5.6787      6.6964      7.3753      7.1704      5.7874      3.3970    
 0.65298     -1.5311     -.21800E-01  1.8802      4.2412      6.2428      7.3120      7.3209      6.5637      5.5505    
  4.6462      3.9642      3.5488      3.4103      3.5488      3.9642      4.6462      5.5504      6.5637      7.3211    
  7.3123      6.2432      4.2416      1.8806     -.21616E-01 -.75008      1.8802      3.8480      5.8140      7.1177    
  7.4474      6.9184      5.9509      4.9885      4.2070      3.6713      3.4027      3.4027      3.6713      4.2069    
  4.9884      5.9509      6.9184      7.4476      7.1181      5.8145      3.8484      1.8806     0.65311     0.65297    
  4.2412      5.8140      7.0256      7.4721      7.1124      6.2340      5.2578      4.4144      3.7861      3.4060    
  3.2797      3.4060      3.7860      4.4143      5.2576      6.2339      7.1124      7.4723      7.0260      5.8145    
  4.2417      2.9235      2.4107      2.9232      6.2428      7.1177      7.4721      7.1722      6.3783      5.4294    
  4.5654      3.8790      3.4145      3.1831      3.1831      3.4145      3.8790      4.5653      5.4292      6.3781    
  7.1720      7.4722      7.1180      6.2432      5.2394      4.5784      4.5783      5.2390      7.3120      7.4474    
  7.1124      6.3783      5.4883      4.6447      3.9392      3.4228      3.1135      3.0111      3.1135      3.4229    
  3.9392      4.6446      5.4880      6.3780      7.1122      7.4473      7.3121      6.8584      6.3879      6.1913    
  6.3878      6.8582      7.3209      6.9184      6.2340      5.4294      4.6447      3.9600      3.4276      3.0713    
  2.8945      2.8946      3.0714      3.4278      3.9600      4.6447      5.4293      6.2338      6.9181      7.3207    
  7.4118      7.3063      7.1867      7.1867      7.3064      7.4119      6.5637      5.9509      5.2578      4.5654    
  3.9392      3.4276      3.0571      2.8357      2.7624      2.8358      3.0572      3.4278      3.9393      4.5655    
  5.2578      5.9508      6.5634      6.9963      7.2253      7.3076      7.3229      7.3077      7.2255      6.9966    
  5.5505      4.9885      4.4144      3.8790      3.4228      3.0713      2.8357      2.7183      2.7183      2.8357    
  3.0713      3.4229      3.8792      4.4146      4.9886      5.5505      6.0494      6.4367      6.6826      6.7963    
  6.7964      6.6827      6.4369      6.0495      4.6462      4.2070      3.7861      3.4145      3.1135      2.8945    
  2.7624      2.7183      2.7623      2.8944      3.1134      3.4145      3.7862      4.2072      4.6464      5.0668    
  5.4312      5.7097      5.8829      5.9414      5.8829      5.7097      5.4311      5.0666      3.9642      3.6713    
  3.4060      3.1831      3.0111      2.8946      2.8358      2.8357      2.8944      3.0109      3.1829      3.4059    
  3.6714      3.9643      4.2632      4.5420      4.7749      4.9412      5.0274      5.0274      4.9411      4.7747    
  4.5418      4.2630      3.5488      3.4027      3.2797      3.1831      3.1135      3.0714      3.0572      3.0713    
  3.1134      3.1829      3.2795      3.4025      3.5487      3.7099      3.8730      4.0212      4.1388      4.2139    
  4.2395      4.2137      4.1386      4.0210      3.8728      3.7099      3.4103      3.4027      3.4060      3.4145    
  3.4229      3.4278      3.4278      3.4229      3.4145      3.4059      3.4025      3.4100      3.4317      3.4659    
  3.5064      3.5449      3.5742      3.5898      3.5897      3.5741      3.5448      3.5063      3.4660      3.4319    
  3.5488      3.6713      3.7860      3.8790      3.9392      3.9600      3.9393      3.8792      3.7862      3.6714    
  3.5487      3.4317      3.3302      3.2485      3.1868      3.1434      3.1174      3.1086      3.1173      3.1434    
  3.1869      3.2487      3.3304      3.4319      3.9642      4.2069      4.4143      4.5653      4.6446      4.6447    
  4.5655      4.4146      4.2072      3.9643      3.7099      3.4659      3.2485      3.0679      2.9291      2.8350    
  2.7874      2.7874      2.8351      2.9293      3.0681      3.2487      3.4660      3.7099      4.6462      4.9884    
  5.2576      5.4292      5.4880      5.4293      5.2578      4.9886      4.6464      4.2632      3.8730      3.5064    
  3.1868      2.9291      2.7416      2.6280      2.5900      2.6281      2.7417      2.9293      3.1869      3.5064    
  3.8728      4.2630      5.5504      5.9509      6.2339      6.3781      6.3780      6.2338      5.9508      5.5505    
  5.0668      4.5420      4.0212      3.5449      3.1434      2.8350      2.6280      2.5245      2.5246      2.6281    
  2.8351      3.1434      3.5448      4.0210      4.5418      5.0666      6.5637      6.9184      7.1124      7.1720    
  7.1122      6.9181      6.5634      6.0494      5.4312      4.7749      4.1388      3.5742      3.1174      2.7874    
  2.5900      2.5246      2.5900      2.7874      3.1173      3.5740      4.1386      4.7748      5.4311      6.0495    
  7.3211      7.4476      7.4723      7.4722      7.4473      7.3207      6.9963      6.4367      5.7097      4.9412    
  4.2139      3.5898      3.1086      2.7874      2.6281      2.6281      2.7874      3.1085      3.5896      4.2138    
  4.9412      5.7097      6.4369      6.9966      7.3123      7.1181      7.0260      7.1180      7.3121      7.4118    
  7.2253      6.6826      5.8829      5.0274      4.2395      3.5897      3.1173      2.8351      2.7417      2.8351    
  3.1173      3.5896      4.2395      5.0274      5.8831      6.6828      7.2255      7.4120      6.2432      5.8145    
  5.8145      6.2432      6.8584      7.3063      7.3076      6.7963      5.9414      5.0274      4.2137      3.5741    
  3.1434      2.9293      2.9293      3.1434      3.5740      4.2138      5.0274      5.9416      6.7965      7.3077    
  7.3064      6.8584      4.2416      3.8484      4.2417      5.2394      6.3879      7.1867      7.3229      6.7964    
  5.8829      4.9411      4.1386      3.5448      3.1869      3.0681      3.1869      3.5448      4.1386      4.9412    
  5.8831      6.7965      7.3230      7.1867      6.3878      5.2392      1.8806      1.8806      2.9235      4.5784    
  6.1913      7.1867      7.3077      6.6827      5.7097      4.7747      4.0210      3.5063      3.2487      3.2487    
  3.5064      4.0210      4.7748      5.7097      6.6828      7.3077      7.1867      6.1911      4.5783      2.9234    
 -.21616E-01 0.65311      2.4107      4.5783      6.3878      7.3064      7.2255      6.4369      5.4311      4.5418    
  3.8728      3.4660      3.3304      3.4660      3.8728      4.5418      5.4311      6.4369      7.2255      7.3064    
  6.3878      4.5783      2.4107     0.65311     -.75008     0.65297      2.9232      5.2390      6.8582      7.4119    
  6.9966      6.0495      5.0666      4.2630      3.7099      3.4319      3.4319      3.7099      4.2630      5.0666    
  6.0495      6.9966      7.4120      6.8584      5.2392      2.9234     0.65311     -.75003      2.9357      4.6103    
  6.2428      7.2526      7.3811      6.7581      5.7838      4.8463      4.0900      3.5736      3.3152      3.3152    
  3.5736      4.0900      4.8462      5.7837      6.7581      7.3812      7.2529      6.2432      4.6107      2.9361    
  1.8806      1.8804      4.6103      6.0434      7.1177      7.4595      7.0421      6.1501      5.1846      4.3544    
  3.7371      3.3642      3.2404      3.3642      3.7371      4.3543      5.1845      6.1499      7.0420      7.4597    
  7.1181      6.0439      4.6108      3.3973      2.9234      3.3970      6.2428      7.1177      7.4721      7.1722    
  6.3783      5.4294      4.5654      3.8790      3.4145      3.1831      3.1831      3.4145      3.8790      4.5653    
  5.4292      6.3781      7.1720      7.4722      7.1180      6.2432      5.2393      4.5784      4.5783      5.2390    
  7.2526      7.4595      7.1722      6.4550      5.5576      4.7013      3.9833      3.4572      3.1419      3.0375    
  3.1419      3.4573      3.9833      4.7011      5.5573      6.4547      7.1719      7.4594      7.2527      6.7216    
  6.1913      5.9721      6.1911      6.7214      7.3811      7.0421      6.3783      5.5576      4.7482      4.0385    
  3.4855      3.1151      2.9313      2.9314      3.1152      3.4856      4.0385      4.7481      5.5574      6.3780    
  7.0418      7.3808      7.3810      7.1866      7.0122      7.0122      7.1867      7.3812      6.7581      6.1501    
  5.4294      4.7013      4.0385      3.4954      3.1017      2.8667      2.7889      2.8668      3.1019      3.4955    
  4.0386      4.7013      5.4293      6.1498      6.7578      7.1452      7.3074      7.3313      7.3238      7.3315    
  7.3077      7.1456      5.7838      5.1846      4.5654      3.9833      3.4855      3.1017      2.8450      2.7173    
  2.7173      2.8450      3.1018      3.4857      3.9835      4.5655      5.1847      5.7836      6.3037      6.6824    
  6.9033      6.9971      6.9973      6.9036      6.6828      6.3040      4.8463      4.3544      3.8790      3.4572    
  3.1151      2.8667      2.7173      2.6675      2.7172      2.8667      3.1151      3.4574      3.8792      4.3546    
  4.8464      5.3116      5.7096      6.0094      6.1910      6.2508      6.1911      6.0096      5.7097      5.3116    
  4.0900      3.7371      3.4145      3.1419      2.9313      2.7889      2.7173      2.7172      2.7888      2.9312    
  3.1418      3.4145      3.7373      4.0902      4.4464      4.7749      5.0468      5.2393      5.3387      5.3386    
  5.2393      5.0467      4.7748      4.4462      3.5736      3.3642      3.1831      3.0375      2.9314      2.8668    
  2.8450      2.8667      2.9312      3.0373      3.1829      3.3641      3.5737      3.7987      4.0212      4.2205    
  4.3772      4.4767      4.5108      4.4766      4.3770      4.2202      4.0210      3.7985      3.3152      3.2404    
  3.1831      3.1419      3.1152      3.1019      3.1018      3.1151      3.1418      3.1829      3.2402      3.3149    
  3.4057      3.5064      3.6064      3.6937      3.7577      3.7913      3.7912      3.7575      3.6935      3.6063    
  3.5064      3.4059      3.3152      3.3642      3.4145      3.4573      3.4856      3.4955      3.4857      3.4574    
  3.4145      3.3641      3.3149      3.2749      3.2485      3.2353      3.2313      3.2318      3.2331      3.2337    
  3.2331      3.2317      3.2313      3.2354      3.2487      3.2752      3.5736      3.7371      3.8790      3.9833    
  4.0385      4.0386      3.9835      3.8792      3.7373      3.5737      3.4057      3.2485      3.1120      3.0009    
  2.9167      2.8599      2.8311      2.8311      2.8599      2.9168      3.0011      3.1122      3.2487      3.4058    
  4.0900      4.3543      4.5653      4.7011      4.7481      4.7013      4.5655      4.3546      4.0902      3.7987    
  3.5064      3.2353      3.0009      2.8124      2.6748      2.5910      2.5629      2.5911      2.6749      2.8126    
  3.0011      3.2354      3.5063      3.7985      4.8462      5.1845      5.4292      5.5573      5.5574      5.4293    
  5.1847      4.8464      4.4464      4.0212      3.6064      3.2313      2.9167      2.6748      2.5116      2.4297    
  2.4297      2.5117      2.6749      2.9168      3.2313      3.6063      4.0210      4.4461      5.7837      6.1499    
  6.3781      6.4547      6.3780      6.1498      5.7836      5.3116      4.7749      4.2205      3.6937      3.2318    
  2.8599      2.5910      2.4297      2.3761      2.4298      2.5911      2.8599      3.2317      3.6935      4.2202    
  4.7747      5.3115      6.7581      7.0420      7.1720      7.1719      7.0418      6.7578      6.3037      5.7096    
  5.0468      4.3772      3.7577      3.2331      2.8311      2.5629      2.4297      2.4298      2.5629      2.8311    
  3.2330      3.7575      4.3770      5.0467      5.7097      6.3040      7.3812      7.4597      7.4722      7.4594    
  7.3808      7.1452      6.6824      6.0094      5.2393      4.4767      3.7913      3.2337      2.8311      2.5911    
  2.5117      2.5911      2.8311      3.2336      3.7912      4.4767      5.2393      6.0096      6.6827      7.1456    
  7.2529      7.1181      7.1180      7.2527      7.3810      7.3074      6.9033      6.1910      5.3387      4.5108    
  3.7912      3.2331      2.8599      2.6749      2.6749      2.8599      3.2330      3.7912      4.5108      5.3388    
  6.1912      6.9036      7.3077      7.3813      6.2432      6.0439      6.2432      6.7216      7.1866      7.3313    
  6.9971      6.2508      5.3386      4.4766      3.7575      3.2317      2.9168      2.8126      2.9168      3.2317    
  3.7575      4.4767      5.3388      6.2510      6.9974      7.3315      7.1867      6.7217      4.6107      4.6108    
  5.2393      6.1913      7.0122      7.3238      6.9973      6.1911      5.2393      4.3770      3.6935      3.2313    
  3.0011      3.0011      3.2313      3.6935      4.3770      5.2393      6.1912      6.9974      7.3238      7.0122    
  6.1913      5.2393      2.9361      3.3973      4.5784      5.9721      7.0122      7.3315      6.9036      6.0096    
  5.0467      4.2202      3.6063      3.2354      3.1122      3.2354      3.6063      4.2202      5.0467      6.0096    
  6.9036      7.3315      7.0122      5.9721      4.5784      3.3973      1.8806      2.9234      4.5783      6.1911    
  7.1867      7.3077      6.6828      5.7097      4.7748      4.0210      3.5064      3.2487      3.2487      3.5063    
  4.0210      4.7747      5.7097      6.6827      7.3077      7.1867      6.1913      4.5784      2.9235      1.8806    
  1.8804      3.3970      5.2390      6.7214      7.3812      7.1456      6.3040      5.3116      4.4462      3.7985    
  3.4059      3.2752      3.4058      3.7985      4.4461      5.3115      6.3040      7.1456      7.3813      6.7217    
  5.2393      3.3973      1.8806      1.2947      5.5424      6.6019      7.3120      7.3811      6.8203      5.9042    
  4.9734      4.1817      3.5966      3.2442      3.1273      3.2442      3.5966      4.1816      4.9733      5.9041    
  6.8202      7.3812      7.3122      6.6022      5.5428      4.6107      4.2416      4.6105      6.6019      7.2675    
  7.4474      7.0421      6.2173      5.2869      4.4489      3.7862      3.3387      3.1161      3.1161      3.3388    
  3.7862      4.4489      5.2868      6.2171      7.0420      7.4474      7.2677      6.6022      5.7876      5.2393    
  5.2392      5.7874      7.3120      7.4474      7.1124      6.3783      5.4883      4.6447      3.9392      3.4228    
  3.1135      3.0111      3.1135      3.4229      3.9392      4.6446      5.4880      6.3780      7.1122      7.4473    
  7.3121      6.8584      6.3879      6.1913      6.3878      6.8582      7.3811      7.0421      6.3783      5.5576    
  4.7482      4.0385      3.4855      3.1151      2.9313      2.9314      3.1152      3.4856      4.0385      4.7481    
  5.5574      6.3780      7.0418      7.3808      7.3810      7.1866      7.0122      7.0122      7.1867      7.3812    
  6.8203      6.2173      5.4883      4.7482      4.0729      3.5189      3.1173      2.8775      2.7982      2.8776    
  3.1174      3.5190      4.0729      4.7481      5.4881      6.2170      6.8199      7.1875      7.3226      7.3236    
  7.3071      7.3238      7.3230      7.1879      5.9042      5.2869      4.6447      4.0385      3.5189      3.1182    
  2.8503      2.7172      2.7173      2.8504      3.1183      3.5191      4.0386      4.6448      5.2869      5.9039    
  6.4296      6.7960      6.9970      7.0764      7.0766      6.9974      6.7965      6.4300      4.9734      4.4489    