fcc Si                                  
   4.30000000000000     
     0.500000    0.500000    0.000000
     0.000000    0.500000    0.500000
     0.500000    0.000000    0.500000
   Si
     1
Direct
  0.000000  0.000000  0.000000
 
   24   24   24
 -.32536479690E+01 -.23633604664E+01 -.21796267109E-01 0.29357161597E+01 0.55424277586E+01
 0.71004057308E+01 0.74155628091E+01 0.67823811076E+01 0.57640863782E+01 0.48231511629E+01
 0.41069667798E+01 0.36685329715E+01 0.35220263832E+01 0.36685329715E+01 0.41069667798E+01
 0.48231511629E+01 0.57640863782E+01 0.67823811076E+01 0.74155628091E+01 0.71004057308E+01
 0.55424277586E+01 0.29357161597E+01 -.21796267109E-01 -.23633604664E+01 -.23633604664E+01
 -.75015047906E+00 0.18802485904E+01 0.46102803932E+01 0.66018626326E+01 0.74208768002E+01
 0.71433365575E+01 0.62266878311E+01 0.52211338755E+01 0.43916912504E+01 0.38183013587E+01
 0.35294057117E+01 0.35293854715E+01 0.38182667740E+01 0.43916832522E+01 0.52211560324E+01
 0.62267215106E+01 0.71433972836E+01 0.74210143272E+01 0.66020879803E+01 0.46105257860E+01
 0.18804206420E+01 -.75007902338E+00 -.23633463474E+01 -.21796267109E-01 0.18802485904E+01
 0.42411923904E+01 0.62427899141E+01 0.73120116359E+01 0.73209302236E+01 0.65636491719E+01
 0.55504578042E+01 0.46462447669E+01 0.39641929679E+01 0.35488070208E+01 0.34103287842E+01
 0.35487859625E+01 0.39641584954E+01 0.46462058909E+01 0.55504305320E+01 0.65636711491E+01
 0.73210529314E+01 0.73122648953E+01 0.62431479896E+01 0.42415798012E+01 0.18805709492E+01
 -.21615093738E-01 -.75007902338E+00 0.29357161597E+01 0.46102803932E+01 0.62427899141E+01
 0.72526246430E+01 0.73811232813E+01 0.67581109971E+01 0.57837753592E+01 0.48462726505E+01
 0.40900283426E+01 0.35736362188E+01 0.33151664305E+01 0.33151693431E+01 0.35736252058E+01
 0.40899709358E+01 0.48461705681E+01 0.57836814166E+01 0.67580970120E+01 0.73812401411E+01
 0.72528907439E+01 0.62431881720E+01 0.46107401074E+01 0.29360985203E+01 0.18805709492E+01
 0.18804206420E+01 0.55424277586E+01 0.66018626326E+01 0.73120116359E+01 0.73811232813E+01
 0.68202829266E+01 0.59041785075E+01 0.49733673988E+01 0.41816873961E+01 0.35965591947E+01
 0.32441924950E+01 0.31273237200E+01 0.32442083222E+01 0.35965598447E+01 0.41816353308E+01
 0.49732558615E+01 0.59040510844E+01 0.68202176877E+01 0.73811879576E+01 0.73122285852E+01
 0.66021903974E+01 0.55427631530E+01 0.46107401074E+01 0.42415798012E+01 0.46105257860E+01
 0.71004057308E+01 0.74208768002E+01 0.73209302236E+01 0.67581109971E+01 0.59041785075E+01
 0.50168630313E+01 0.42297181313E+01 0.36120976868E+01 0.31967640047E+01 0.29904142082E+01
 0.29904420521E+01 0.31968317774E+01 0.36121623148E+01 0.42297274962E+01 0.50167961268E+01
 0.59040683299E+01 0.67580265402E+01 0.73209238507E+01 0.74209523584E+01 0.71005240472E+01
 0.66021903974E+01 0.62431881720E+01 0.62431479896E+01 0.66020879803E+01 0.74155628091E+01
 0.71433365575E+01 0.65636491719E+01 0.57837753592E+01 0.49733673988E+01 0.42297181313E+01
 0.36175207878E+01 0.31728509883E+01 0.29071635842E+01 0.28192911335E+01 0.29072420912E+01
 0.31729823956E+01 0.36176574022E+01 0.42298076165E+01 0.49733844796E+01 0.57837306369E+01
 0.65635737168E+01 0.71432557209E+01 0.74154860790E+01 0.74209523584E+01 0.73122285852E+01
 0.72528907439E+01 0.73122648953E+01 0.74210143272E+01 0.67823811076E+01 0.62266878311E+01
 0.55504578042E+01 0.48462726505E+01 0.41816873961E+01 0.36120976868E+01 0.31728509883E+01
 0.28792121106E+01 0.27333516185E+01 0.27333725405E+01 0.28792819324E+01 0.31729741223E+01
 0.36122585777E+01 0.41818474915E+01 0.48463936715E+01 0.55505142610E+01 0.62266654592E+01
 0.67822851956E+01 0.71432557209E+01 0.73209238507E+01 0.73811879576E+01 0.73812401411E+01
 0.73210529314E+01 0.71433972836E+01 0.57640863782E+01 0.52211338755E+01 0.46462447669E+01
 0.40900283426E+01 0.35965591947E+01 0.31967640047E+01 0.29071635842E+01 0.27333516185E+01
 0.26755625087E+01 0.27333102699E+01 0.29071251192E+01 0.31967890320E+01 0.35966838529E+01
 0.40902352958E+01 0.46464652265E+01 0.52212902168E+01 0.57641307579E+01 0.62266654592E+01
 0.65635737168E+01 0.67580265402E+01 0.68202176877E+01 0.67580970120E+01 0.65636711491E+01
 0.62267215106E+01 0.48231511629E+01 0.43916912504E+01 0.39641929679E+01 0.35736362188E+01
 0.32441924950E+01 0.29904142082E+01 0.28192911335E+01 0.27333725405E+01 0.27333102699E+01
 0.28191318096E+01 0.29902354121E+01 0.32440916614E+01 0.35736773744E+01 0.39643639763E+01
 0.43919138308E+01 0.48233454115E+01 0.52212902168E+01 0.55505142610E+01 0.57837306369E+01
 0.59040683299E+01 0.59040510844E+01 0.57836814166E+01 0.55504305320E+01 0.52211560324E+01
 0.41069667798E+01 0.38183013587E+01 0.35488070208E+01 0.33151664305E+01 0.31273237200E+01
 0.29904420521E+01 0.29072420912E+01 0.28792819324E+01 0.29071251192E+01 0.29902354121E+01
 0.31270809826E+01 0.33149570143E+01 0.35486930482E+01 0.38183179547E+01 0.41071093838E+01
 0.43919138308E+01 0.46464652265E+01 0.48463936715E+01 0.49733844796E+01 0.50167961268E+01
 0.49732558615E+01 0.48461705681E+01 0.46462058909E+01 0.43916832522E+01 0.36685329715E+01
 0.35294057117E+01 0.34103287842E+01 0.33151693431E+01 0.32442083222E+01 0.31968317774E+01
 0.31729823956E+01 0.31729741223E+01 0.31967890320E+01 0.32440916614E+01 0.33149570143E+01
 0.34100520228E+01 0.35291508809E+01 0.36684027814E+01 0.38183179547E+01 0.39643639763E+01
 0.40902352958E+01 0.41818474915E+01 0.42298076165E+01 0.42297274962E+01 0.41816353308E+01
 0.40899709358E+01 0.39641584954E+01 0.38182667740E+01 0.35220263832E+01 0.35293854715E+01
 0.35487859625E+01 0.35736252058E+01 0.35965598447E+01 0.36121623148E+01 0.36176574022E+01
 0.36122585777E+01 0.35966838529E+01 0.35736773744E+01 0.35486930482E+01 0.35291508809E+01
 0.35217330461E+01 0.35291508809E+01 0.35486930482E+01 0.35736773744E+01 0.35966838529E+01
 0.36122585777E+01 0.36176574022E+01 0.36121623148E+01 0.35965598447E+01 0.35736252058E+01
 0.35487859625E+01 0.35293854715E+01 0.36685329715E+01 0.38182667740E+01 0.39641584954E+01
 0.40899709358E+01 0.41816353308E+01 0.42297274962E+01 0.42298076165E+01 0.41818474915E+01
 0.40902352958E+01 0.39643639763E+01 0.38183179547E+01 0.36684027814E+01 0.35291508809E+01
 0.34100520228E+01 0.33149570143E+01 0.32440916614E+01 0.31967890320E+01 0.31729741223E+01
 0.31729823956E+01 0.31968317774E+01 0.32442083222E+01 0.33151693431E+01 0.34103287842E+01
 0.35294057117E+01 0.41069667798E+01 0.43916832522E+01 0.46462058909E+01 0.48461705681E+01
 0.49732558615E+01 0.50167961268E+01 0.49733844796E+01 0.48463936715E+01 0.46464652265E+01
 0.43919138308E+01 0.41071093838E+01 0.38183179547E+01 0.35486930482E+01 0.33149570143E+01
 0.31270809826E+01 0.29902354121E+01 0.29071251192E+01 0.28792819324E+01 0.29072420912E+01
 0.29904420521E+01 0.31273237200E+01 0.33151664305E+01 0.35488070208E+01 0.38183013587E+01
 0.48231511629E+01 0.52211560324E+01 0.55504305320E+01 0.57836814166E+01 0.59040510844E+01
 0.59040683299E+01 0.57837306369E+01 0.55505142610E+01 0.52212902168E+01 0.48233454115E+01
 0.43919138308E+01 0.39643639763E+01 0.35736773744E+01 0.32440916614E+01 0.29902354121E+01
 0.28191318096E+01 0.27333102699E+01 0.27333725405E+01 0.28192911335E+01 0.29904142082E+01
 0.32441924950E+01 0.35736362188E+01 0.39641929679E+01 0.43916912504E+01 0.57640863782E+01
 0.62267215106E+01 0.65636711491E+01 0.67580970120E+01 0.68202176877E+01 0.67580265402E+01
 0.65635737168E+01 0.62266654592E+01 0.57641307579E+01 0.52212902168E+01 0.46464652265E+01
 0.40902352958E+01 0.35966838529E+01 0.31967890320E+01 0.29071251192E+01 0.27333102699E+01
 0.26755625087E+01 0.27333516185E+01 0.29071635842E+01 0.31967640047E+01 0.35965591947E+01
 0.40900283426E+01 0.46462447669E+01 0.52211338755E+01 0.67823811076E+01 0.71433972836E+01
 0.73210529314E+01 0.73812401411E+01 0.73811879576E+01 0.73209238507E+01 0.71432557209E+01
 0.67822851956E+01 0.62266654592E+01 0.55505142610E+01 0.48463936715E+01 0.41818474915E+01
 0.36122585777E+01 0.31729741223E+01 0.28792819324E+01 0.27333725405E+01 0.27333516185E+01
 0.28792121106E+01 0.31728509883E+01 0.36120976868E+01 0.41816873961E+01 0.48462726505E+01
 0.55504578042E+01 0.62266878311E+01 0.74155628091E+01 0.74210143272E+01 0.73122648953E+01
 0.72528907439E+01 0.73122285852E+01 0.74209523584E+01 0.74154860790E+01 0.71432557209E+01
 0.65635737168E+01 0.57837306369E+01 0.49733844796E+01 0.42298076165E+01 0.36176574022E+01
 0.31729823956E+01 0.29072420912E+01 0.28192911335E+01 0.29071635842E+01 0.31728509883E+01
 0.36175207878E+01 0.42297181313E+01 0.49733673988E+01 0.57837753592E+01 0.65636491719E+01
 0.71433365575E+01 0.71004057308E+01 0.66020879803E+01 0.62431479896E+01 0.62431881720E+01
 0.66021903974E+01 0.71005240472E+01 0.74209523584E+01 0.73209238507E+01 0.67580265402E+01
 0.59040683299E+01 0.50167961268E+01 0.42297274962E+01 0.36121623148E+01 0.31968317774E+01
 0.29904420521E+01 0.29904142082E+01 0.31967640047E+01 0.36120976868E+01 0.42297181313E+01
 0.50168630313E+01 0.59041785075E+01 0.67581109971E+01 0.73209302236E+01 0.74208768002E+01
 0.55424277586E+01 0.46105257860E+01 0.42415798012E+01 0.46107401074E+01 0.55427631530E+01
 0.66021903974E+01 0.73122285852E+01 0.73811879576E+01 0.68202176877E+01 0.59040510844E+01
 0.49732558615E+01 0.41816353308E+01 0.35965598447E+01 0.32442083222E+01 0.31273237200E+01
 0.32441924950E+01 0.35965591947E+01 0.41816873961E+01 0.49733673988E+01 0.59041785075E+01
 0.68202829266E+01 0.73811232813E+01 0.73120116359E+01 0.66018626326E+01 0.29357161597E+01
 0.18804206420E+01 0.18805709492E+01 0.29360985203E+01 0.46107401074E+01 0.62431881720E+01
 0.72528907439E+01 0.73812401411E+01 0.67580970120E+01 0.57836814166E+01 0.48461705681E+01
 0.40899709358E+01 0.35736252058E+01 0.33151693431E+01 0.33151664305E+01 0.35736362188E+01
 0.40900283426E+01 0.48462726505E+01 0.57837753592E+01 0.67581109971E+01 0.73811232813E+01
 0.72526246430E+01 0.62427899141E+01 0.46102803932E+01 -.21796267109E-01 -.75007902338E+00
 -.21615093738E-01 0.18805709492E+01 0.42415798012E+01 0.62431479896E+01 0.73122648953E+01
 0.73210529314E+01 0.65636711491E+01 0.55504305320E+01 0.46462058909E+01 0.39641584954E+01
 0.35487859625E+01 0.34103287842E+01 0.35488070208E+01 0.39641929679E+01 0.46462447669E+01
 0.55504578042E+01 0.65636491719E+01 0.73209302236E+01 0.73120116359E+01 0.62427899141E+01
 0.42411923904E+01 0.18802485904E+01 -.23633604664E+01 -.23633463474E+01 -.75007902338E+00
 0.18804206420E+01 0.46105257860E+01 0.66020879803E+01 0.74210143272E+01 0.71433972836E+01
 0.62267215106E+01 0.52211560324E+01 0.43916832522E+01 0.38182667740E+01 0.35293854715E+01
 0.35294057117E+01 0.38183013587E+01 0.43916912504E+01 0.52211338755E+01 0.62266878311E+01
 0.71433365575E+01 0.74208768002E+01 0.66018626326E+01 0.46102803932E+01 0.18802485904E+01
 -.75015047906E+00 -.23633623842E+01 -.75015352073E+00 0.18802468279E+01 0.46102799262E+01
 0.66018619121E+01 0.74208761016E+01 0.71433371782E+01 0.62266889928E+01 0.52211338493E+01
 0.43916906079E+01 0.38183018080E+01 0.35294067288E+01 0.35293853868E+01 0.38182661302E+01
 0.43916837311E+01 0.52211571030E+01 0.62267215191E+01 0.71433968503E+01 0.74210152894E+01
 0.66020899309E+01 0.46105269422E+01 0.18804211004E+01 -.75007818758E+00 -.23633460791E+01
 -.75015352073E+00 0.12944597188E+01 0.38479565935E+01 0.60434090616E+01 0.72674584172E+01
 0.73714522220E+01 0.66504674714E+01 0.56329703876E+01 0.47156794139E+01 0.40217772864E+01
 0.35985030185E+01 0.34572905120E+01 0.35984751397E+01 0.40217428466E+01 0.47156535502E+01
 0.56329635964E+01 0.66505182498E+01 0.73716255261E+01 0.72677812185E+01 0.60438180824E+01
 0.38483341175E+01 0.12947155655E+01 -.75003497996E+00 -.15311263151E+01 0.18802468279E+01
 0.38479565935E+01 0.58140011615E+01 0.71177273145E+01 0.74473841348E+01 0.69183566925E+01
 0.59509242880E+01 0.49884777413E+01 0.42069687652E+01 0.36713432904E+01 0.34027395619E+01
 0.34027362024E+01 0.36713198630E+01 0.42069040260E+01 0.49883806105E+01 0.59508550872E+01
 0.69183994333E+01 0.74475923522E+01 0.71180935914E+01 0.58144650911E+01 0.38484252698E+01
 0.18806030476E+01 0.65310973564E+00 0.65297580430E+00 0.46102799262E+01 0.60434090616E+01
 0.71177273145E+01 0.74595323842E+01 0.70420890697E+01 0.61500535286E+01 0.51846478704E+01
 0.43544223180E+01 0.37371362689E+01 0.33642441562E+01 0.32403993874E+01 0.33642373284E+01
 0.37370992276E+01 0.43543284496E+01 0.51845011880E+01 0.61499109108E+01 0.70420428044E+01
 0.74596618385E+01 0.71180565912E+01 0.60438792577E+01 0.46107537806E+01 0.33973165069E+01
 0.29234052323E+01 0.33970153908E+01 0.66018619121E+01 0.72674584172E+01 0.74473841348E+01
 0.70420890697E+01 0.62173236167E+01 0.52869435932E+01 0.44489297174E+01 0.37861856183E+01
 0.33387309941E+01 0.31160514692E+01 0.31160638573E+01 0.33387562206E+01 0.37861849774E+01
 0.44488535466E+01 0.52867778546E+01 0.62171292803E+01 0.70419783246E+01 0.74474424282E+01
 0.72676865149E+01 0.66021705296E+01 0.57876348870E+01 0.52393211677E+01 0.52392198626E+01
 0.57873753129E+01 0.74208761016E+01 0.73714522220E+01 0.69183566925E+01 0.61500535286E+01
 0.52869435932E+01 0.44814218328E+01 0.38121492933E+01 0.33239294452E+01 0.30318409547E+01
 0.29352304765E+01 0.30319168941E+01 0.33240357551E+01 0.38122171494E+01 0.44813995710E+01
 0.52868329771E+01 0.61499064469E+01 0.69182407565E+01 0.73714047461E+01 0.74208952387E+01
 0.71704854422E+01 0.68584301676E+01 0.67216773246E+01 0.68583892248E+01 0.71704335144E+01
 0.71433371782E+01 0.66504674714E+01 0.59509242880E+01 0.51846478704E+01 0.44489297174E+01
 0.38121492933E+01 0.33190346516E+01 0.29892514678E+01 0.28256359254E+01 0.28256821850E+01
 0.29893734763E+01 0.33191887341E+01 0.38122854819E+01 0.44490088058E+01 0.51846539446E+01
 0.59508590534E+01 0.66503518514E+01 0.71432028258E+01 0.73752265842E+01 0.74119368299E+01
 0.73812462736E+01 0.73812743524E+01 0.74120169094E+01 0.73753473927E+01 0.62266889928E+01
 0.56329703876E+01 0.49884777413E+01 0.43544223180E+01 0.37861856183E+01 0.33239294452E+01
 0.29892514678E+01 0.27889498639E+01 0.27225364646E+01 0.27889795046E+01 0.29893248083E+01
 0.33240558283E+01 0.37863518886E+01 0.43545888015E+01 0.49885974275E+01 0.56330086010E+01
 0.62266369796E+01 0.66962833035E+01 0.69964486456E+01 0.71455149975E+01 0.71879149498E+01
 0.71455970387E+01 0.69965748731E+01 0.66963971993E+01 0.52211338493E+01 0.47156794139E+01
 0.42069687652E+01 0.37371362689E+01 0.33387309941E+01 0.30318409547E+01 0.28256359254E+01
 0.27225364646E+01 0.27225015493E+01 0.28255553638E+01 0.30317771763E+01 0.33387505798E+01
 0.37372691233E+01 0.42071816873E+01 0.47158944430E+01 0.52212797353E+01 0.56787112308E+01
 0.60494944906E+01 0.63039248256E+01 0.64299171945E+01 0.64299377949E+01 0.63039699453E+01
 0.60495191009E+01 0.56786626792E+01 0.43916906079E+01 0.40217772864E+01 0.36713432904E+01
 0.33642441562E+01 0.31160514692E+01 0.29352304765E+01 0.28256821850E+01 0.27889795046E+01
 0.28255553638E+01 0.29350247452E+01 0.31158530249E+01 0.33641425914E+01 0.36713845380E+01
 0.40219392079E+01 0.43919055053E+01 0.47508985846E+01 0.50668064001E+01 0.53116395854E+01
 0.54656399751E+01 0.55180390060E+01 0.54655760891E+01 0.53115192361E+01 0.50666381405E+01
 0.47506922089E+01 0.38183018080E+01 0.35985030185E+01 0.34027395619E+01 0.32403993874E+01
 0.31160638573E+01 0.30319168941E+01 0.29893734763E+01 0.29893248083E+01 0.30317771763E+01
 0.31158530249E+01 0.32401567868E+01 0.34025219215E+01 0.35983740309E+01 0.38183100144E+01
 0.40467424174E+01 0.42632350419E+01 0.44463902692E+01 0.45782529857E+01 0.46469341765E+01
 0.46468587313E+01 0.45780490198E+01 0.44461201755E+01 0.42629837527E+01 0.40465903296E+01
 0.35294067288E+01 0.34572905120E+01 0.34027362024E+01 0.33642373284E+01 0.33387562206E+01
 0.33240357551E+01 0.33191887341E+01 0.33240558283E+01 0.33387505798E+01 0.33641425914E+01
 0.34025219215E+01 0.34569987219E+01 0.35291439925E+01 0.36161886811E+01 0.37099690498E+01
 0.37987222487E+01 0.38706560467E+01 0.39169708062E+01 0.39328374683E+01 0.39168275706E+01
 0.38704312360E+01 0.37985228346E+01 0.37099050107E+01 0.36163103130E+01 0.35293853868E+01
 0.35984751397E+01 0.36713198630E+01 0.37370992276E+01 0.37861849774E+01 0.38122171494E+01
 0.38122854819E+01 0.37863518886E+01 0.37372691233E+01 0.36713845380E+01 0.35983740309E+01
 0.35291439925E+01 0.34723581607E+01 0.34317032430E+01 0.34057620042E+01 0.33904045429E+01
 0.33817546232E+01 0.33777173533E+01 0.33776850987E+01 0.33816889185E+01 0.33903799392E+01
 0.34058501791E+01 0.34319199405E+01 0.34726424574E+01 0.38182661302E+01 0.40217428466E+01
 0.42069040260E+01 0.43543284496E+01 0.44488535466E+01 0.44813995710E+01 0.44490088058E+01
 0.43545888015E+01 0.42071816873E+01 0.40219392079E+01 0.38183100144E+01 0.36161886811E+01
 0.34317032430E+01 0.32749507627E+01 0.31506475692E+01 0.30605914158E+01 0.30058588045E+01
 0.29874734205E+01 0.30059150278E+01 0.30607217507E+01 0.31508591122E+01 0.32752096386E+01
 0.34319352309E+01 0.36163086518E+01 0.43916837311E+01 0.47156535502E+01 0.49883806105E+01
 0.51845011880E+01 0.52867778546E+01 0.52868329771E+01 0.51846539446E+01 0.49885974275E+01
 0.47158944430E+01 0.43919055053E+01 0.40467424174E+01 0.37099690498E+01 0.34057620042E+01
 0.31506475692E+01 0.29541822050E+01 0.28212614080E+01 0.27543016479E+01 0.27543647840E+01
 0.28214323068E+01 0.29544065802E+01 0.31508459823E+01 0.34058613097E+01 0.37099345520E+01
 0.40465903504E+01 0.52211571030E+01 0.56329635964E+01 0.59508550872E+01 0.61499109108E+01
 0.62171292803E+01 0.61499064469E+01 0.59508590534E+01 0.56330086010E+01 0.52212797353E+01
 0.47508985846E+01 0.42632350419E+01 0.37987222487E+01 0.33904045429E+01 0.30605914158E+01
 0.28212614080E+01 0.26770802400E+01 0.26290532674E+01 0.26771816467E+01 0.28214021791E+01
 0.30606775556E+01 0.33903637664E+01 0.37985498988E+01 0.42630005892E+01 0.47506939038E+01
 0.62267215191E+01 0.66505182498E+01 0.69183994333E+01 0.70420428044E+01 0.70419783246E+01
 0.69182407565E+01 0.66503518514E+01 0.62266369796E+01 0.56787112308E+01 0.50668064001E+01
 0.44463902692E+01 0.38706560467E+01 0.33817546232E+01 0.30058588045E+01 0.27543016479E+01
 0.26290532674E+01 0.26290694145E+01 0.27543245670E+01 0.30058320574E+01 0.33816378062E+01
 0.38704568221E+01 0.44461679011E+01 0.50666390828E+01 0.56786626932E+01 0.71433968503E+01
 0.73716255261E+01 0.74475923522E+01 0.74596618385E+01 0.74474424282E+01 0.73714047461E+01
 0.71432028258E+01 0.66962833035E+01 0.60494944906E+01 0.53116395854E+01 0.45782529857E+01
 0.39169708062E+01 0.33777173533E+01 0.29874734205E+01 0.27543647840E+01 0.26771816467E+01
 0.27543245670E+01 0.29873800418E+01 0.33775754082E+01 0.39168162126E+01 0.45781325869E+01
 0.53115819225E+01 0.60495175407E+01 0.66963955809E+01 0.74210152894E+01 0.72677812185E+01
 0.71180935914E+01 0.71180565912E+01 0.72676865149E+01 0.74208952387E+01 0.73752265842E+01
 0.69964486456E+01 0.63039248256E+01 0.54656399751E+01 0.46469341765E+01 0.39328374683E+01
 0.33776850987E+01 0.30059150278E+01 0.28214323068E+01 0.28214021791E+01 0.30058320574E+01
 0.33775754082E+01 0.39327489000E+01 0.46469090688E+01 0.54656870659E+01 0.63040195406E+01
 0.69965616528E+01 0.73753477015E+01 0.66020899309E+01 0.60438180824E+01 0.58144650911E+01
 0.60438792577E+01 0.66021705296E+01 0.71704854422E+01 0.74119368299E+01 0.71455149975E+01
 0.64299171945E+01 0.55180390060E+01 0.46468587313E+01 0.39168275706E+01 0.33816889185E+01
 0.30607217507E+01 0.29544065802E+01 0.30606775556E+01 0.33816378062E+01 0.39168162126E+01
 0.46469090688E+01 0.55181357055E+01 0.64300207547E+01 0.71455849003E+01 0.74119484738E+01
 0.71704361238E+01 0.46105269422E+01 0.38483341175E+01 0.38484252698E+01 0.46107537806E+01
 0.57876348870E+01 0.68584301676E+01 0.73812462736E+01 0.71879149498E+01 0.64299377949E+01
 0.54655760891E+01 0.45780490198E+01 0.38704312360E+01 0.33903799392E+01 0.31508591122E+01
 0.31508459823E+01 0.33903637664E+01 0.38704568221E+01 0.45781325869E+01 0.54656870659E+01
 0.64300207547E+01 0.71879230677E+01 0.73811527816E+01 0.68582334321E+01 0.57873771538E+01
 0.18804211004E+01 0.12947155655E+01 0.18806030476E+01 0.33973165069E+01 0.52393211677E+01
 0.67216773246E+01 0.73812743524E+01 0.71455970387E+01 0.63039699453E+01 0.53115192361E+01
 0.44461201755E+01 0.37985228346E+01 0.34058501791E+01 0.32752096386E+01 0.34058613097E+01
 0.37985498988E+01 0.44461679011E+01 0.53115819225E+01 0.63040195406E+01 0.71455849003E+01
 0.73811527816E+01 0.67214349835E+01 0.52390043138E+01 0.33970162883E+01 -.75007818758E+00
 -.75003497996E+00 0.65310973564E+00 0.29234052323E+01 0.52392198626E+01 0.68583892248E+01
 0.74120169094E+01 0.69965748731E+01 0.60495191009E+01 0.50666381405E+01 0.42629837527E+01
 0.37099050107E+01 0.34319199405E+01 0.34319352309E+01 0.37099345520E+01 0.42630005892E+01
 0.50666390828E+01 0.60495175407E+01 0.69965616528E+01 0.74119484738E+01 0.68582334321E+01
 0.52390043138E+01 0.29232021947E+01 0.65297837869E+00 -.23633460791E+01 -.15311263151E+01
 0.65297580430E+00 0.33970153908E+01 0.57873753129E+01 0.71704335144E+01 0.73753473927E+01
 0.66963971993E+01 0.56786626792E+01 0.47506922089E+01 0.40465903296E+01 0.36163103130E+01
 0.34726424574E+01 0.36163086518E+01 0.40465903504E+01 0.47506939038E+01 0.56786626932E+01
 0.66963955809E+01 0.73753477015E+01 0.71704361238E+01 0.57873771538E+01 0.33970162883E+01
 0.65297837869E+00 -.15311230218E+01 -.21800483820E-01 0.18802444903E+01 0.42411918359E+01
 0.62427912052E+01 0.73120116581E+01 0.73209301258E+01 0.65636511153E+01 0.55504598317E+01
 0.46462443440E+01 0.39641920604E+01 0.35488083260E+01 0.34103304728E+01 0.35487854025E+01
 0.39641575461E+01 0.46462072087E+01 0.55504322892E+01 0.65636707573E+01 0.73210523568E+01
 0.73122668895E+01 0.62431505921E+01 0.42415798804E+01 0.18805696475E+01 -.21615609839E-01
 -.75008045922E+00 0.18802444903E+01 0.38479554906E+01 0.58140023314E+01 0.71177290443E+01
 0.74473848543E+01 0.69183572765E+01 0.59509256072E+01 0.49884786154E+01 0.42069683793E+01
 0.36713430367E+01 0.34027404358E+01 0.34027368975E+01 0.36713194093E+01 0.42069037404E+01
 0.49883814754E+01 0.59508558050E+01 0.69183990606E+01 0.74475922327E+01 0.71180946439E+01
 0.58144657589E+01 0.38484241940E+01 0.18806012732E+01 0.65310836144E+00 0.65297407169E+00
 0.42411918359E+01 0.58140023314E+01 0.70256196437E+01 0.74721102718E+01 0.71123907678E+01
 0.62340180332E+01 0.52577687374E+01 0.44144454628E+01 0.37860567644E+01 0.34060242031E+01
 0.32797457177E+01 0.34060110146E+01 0.37860080956E+01 0.44143379767E+01 0.52576126026E+01
 0.62338766182E+01 0.71123586508E+01 0.74722633428E+01 0.70259723580E+01 0.58144864977E+01
 0.42416696381E+01 0.29235003507E+01 0.24106899648E+01 0.29232008719E+01 0.62427912052E+01
 0.71177290443E+01 0.74721102718E+01 0.71721876336E+01 0.63783020731E+01 0.54293942014E+01
 0.45654064012E+01 0.38790131017E+01 0.34144940582E+01 0.31830794107E+01 0.31830842373E+01
 0.34144946405E+01 0.38789692074E+01 0.45652753157E+01 0.54291716597E+01 0.63780554115E+01
 0.71720336905E+01 0.74721517932E+01 0.71179887296E+01 0.62431789932E+01 0.52393519925E+01
 0.45783980836E+01 0.45782593146E+01 0.52390052118E+01 0.73120116581E+01 0.74473848543E+01
 0.71123907678E+01 0.63783020731E+01 0.54882745147E+01 0.46447337013E+01 0.39391889817E+01
 0.34228015387E+01 0.31134677556E+01 0.30111172630E+01 0.31135247130E+01 0.34228629299E+01
 0.39391793197E+01 0.46446027163E+01 0.54880347888E+01 0.63780292753E+01 0.71121843325E+01
 0.74473123948E+01 0.73120773489E+01 0.68583683641E+01 0.63878613011E+01 0.61912524655E+01
 0.63877559631E+01 0.68582323746E+01 0.73209301258E+01 0.69183572765E+01 0.62340180332E+01
 0.54293942014E+01 0.46447337013E+01 0.39599698377E+01 0.34276407780E+01 0.30712804073E+01
 0.28945424434E+01 0.28945920501E+01 0.30713992370E+01 0.34277595063E+01 0.39600204082E+01
 0.46446842060E+01 0.54292528987E+01 0.62338169677E+01 0.69181370839E+01 0.73207252897E+01
 0.74117854128E+01 0.73062661885E+01 0.71866841580E+01 0.71867178127E+01 0.73063659690E+01
 0.74119465054E+01 0.65636511153E+01 0.59509256072E+01 0.52577687374E+01 0.45654064012E+01
 0.39391889817E+01 0.34276407780E+01 0.30571148420E+01 0.28357038456E+01 0.27624154267E+01
 0.28357742319E+01 0.30572396011E+01 0.34277914525E+01 0.39393293386E+01 0.45654938400E+01
 0.52577666397E+01 0.59508131099E+01 0.65634440706E+01 0.69963107703E+01 0.72253070591E+01
 0.73075570174E+01 0.73229487707E+01 0.73076921071E+01 0.72255350724E+01 0.69965626902E+01
 0.55504598317E+01 0.49884786154E+01 0.44144454628E+01 0.38790131017E+01 0.34228015387E+01
 0.30712804073E+01 0.28357038456E+01 0.27182993586E+01 0.27182961111E+01 0.28357112619E+01
 0.30713367079E+01 0.34229299830E+01 0.38791967580E+01 0.44146263301E+01 0.49885916833E+01
 0.55504657306E+01 0.60494224353E+01 0.64367205451E+01 0.66825881450E+01 0.67963165459E+01
 0.67963690733E+01 0.66827209919E+01 0.64368713104E+01 0.60495200316E+01 0.46462443440E+01
 0.42069683793E+01 0.37860567644E+01 0.34144940582E+01 0.31134677556E+01 0.28945424434E+01
 0.27624154267E+01 0.27182961111E+01 0.27623284613E+01 0.28944217358E+01 0.31133921433E+01
 0.34145240798E+01 0.37862009476E+01 0.42071787643E+01 0.46464478869E+01 0.50667804709E+01
 0.54312003641E+01 0.57097018762E+01 0.58829373132E+01 0.59414429769E+01 0.58829493785E+01
 0.57096963948E+01 0.54311370295E+01 0.50666386774E+01 0.39641920604E+01 0.36713430367E+01
 0.34060242031E+01 0.31830794107E+01 0.30111172630E+01 0.28945920501E+01 0.28357742319E+01
 0.28357112619E+01 0.28944217358E+01 0.30108937864E+01 0.31828821909E+01 0.34059262978E+01
 0.36713783590E+01 0.39643430927E+01 0.42632145146E+01 0.45420023115E+01 0.47749446083E+01
 0.49412120768E+01 0.50273984085E+01 0.50273503050E+01 0.49410767401E+01 0.47747469161E+01
 0.45417748648E+01 0.42629986346E+01 0.35488083260E+01 0.34027404358E+01 0.32797457177E+01
 0.31830842373E+01 0.31135247130E+01 0.30713992370E+01 0.30572396011E+01 0.30713367079E+01
 0.31133921433E+01 0.31828821909E+01 0.32795023516E+01 0.34025154053E+01 0.35486753437E+01
 0.37099488080E+01 0.38729760460E+01 0.40212292239E+01 0.41388420458E+01 0.42138793729E+01
 0.42395400140E+01 0.42137239152E+01 0.41385896563E+01 0.40209747296E+01 0.38728136855E+01
 0.37099353801E+01 0.34103304728E+01 0.34027368975E+01 0.34060110146E+01 0.34144946405E+01
 0.34228629299E+01 0.34277595063E+01 0.34277914525E+01 0.34229299830E+01 0.34145240798E+01
 0.34059262978E+01 0.34025154053E+01 0.34100346722E+01 0.34316865853E+01 0.34658811940E+01
 0.35063960348E+01 0.35449283633E+01 0.35742173396E+01 0.35897611026E+01 0.35896969330E+01
 0.35740584785E+01 0.35447629517E+01 0.35063314396E+01 0.34659849215E+01 0.34319375457E+01
 0.35487854025E+01 0.36713194093E+01 0.37860080956E+01 0.38789692074E+01 0.39391793197E+01
 0.39600204082E+01 0.39393293386E+01 0.38791967580E+01 0.37862009476E+01 0.36713783590E+01
 0.35486753437E+01 0.34316865853E+01 0.33301842950E+01 0.32485270842E+01 0.31867822237E+01
 0.31434006958E+01 0.31173656446E+01 0.31086258985E+01 0.31173483908E+01 0.31434100906E+01
 0.31868738889E+01 0.32487225997E+01 0.33304436565E+01 0.34319194511E+01 0.39641575461E+01
 0.42069037404E+01 0.44143379767E+01 0.45652753157E+01 0.46446027163E+01 0.46446842060E+01
 0.45654938400E+01 0.44146263301E+01 0.42071787643E+01 0.39643430927E+01 0.37099488080E+01
 0.34658811940E+01 0.32485270842E+01 0.30678772774E+01 0.29291108731E+01 0.28349923560E+01
 0.27873858692E+01 0.27874236509E+01 0.28351097249E+01 0.29293054920E+01 0.30681126974E+01
 0.32487325115E+01 0.34659822997E+01 0.37099030331E+01 0.46462072087E+01 0.49883814754E+01
 0.52576126026E+01 0.54291716597E+01 0.54880347888E+01 0.54292528987E+01 0.52577666397E+01
 0.49885916833E+01 0.46464478869E+01 0.42632145146E+01 0.38729760460E+01 0.35063960348E+01
 0.31867822237E+01 0.29291108731E+01 0.27415545553E+01 0.26279848850E+01 0.25900233086E+01
 0.26280991299E+01 0.27417357569E+01 0.29292808989E+01 0.31868650609E+01 0.35063511079E+01
 0.38728136730E+01 0.42629845898E+01 0.55504322892E+01 0.59508558050E+01 0.62338766182E+01
 0.63780554115E+01 0.63780292753E+01 0.62338169677E+01 0.59508131099E+01 0.55504657306E+01
 0.50667804709E+01 0.45420023115E+01 0.40212292239E+01 0.35449283633E+01 0.31434006958E+01
 0.28349923560E+01 0.26279848850E+01 0.25245415662E+01 0.25245875928E+01 0.26280861090E+01
 0.28350626570E+01 0.31433633127E+01 0.35447647293E+01 0.40209905863E+01 0.45417774598E+01
 0.50666404874E+01 0.65636707573E+01 0.69183990606E+01 0.71123586508E+01 0.71720336905E+01
 0.71121843325E+01 0.69181370839E+01 0.65634440706E+01 0.60494224353E+01 0.54312003641E+01
 0.47749446083E+01 0.41388420458E+01 0.35742173396E+01 0.31173656446E+01 0.27873858692E+01
 0.25900233086E+01 0.25245875928E+01 0.25900405830E+01 0.27873750773E+01 0.31172774521E+01
 0.35740419540E+01 0.41386246774E+01 0.47747650287E+01 0.54311369983E+01 0.60495186822E+01
 0.73210523568E+01 0.74475922327E+01 0.74722633428E+01 0.74721517932E+01 0.74473123948E+01
 0.73207252897E+01 0.69963107703E+01 0.64367205451E+01 0.57097018762E+01 0.49412120768E+01
 0.42138793729E+01 0.35897611026E+01 0.31086258985E+01 0.27874236509E+01 0.26280991299E+01
 0.26280861090E+01 0.27873750773E+01 0.31085323534E+01 0.35896367073E+01 0.42137660588E+01
 0.49411536014E+01 0.57097348841E+01 0.64368686526E+01 0.69965730847E+01 0.73122668895E+01
 0.71180946439E+01 0.70259723580E+01 0.71179887296E+01 0.73120773489E+01 0.74117854128E+01
 0.72253070591E+01 0.66825881450E+01 0.58829373132E+01 0.50273984085E+01 0.42395400140E+01
 0.35896969330E+01 0.31173483908E+01 0.28351097249E+01 0.27417357569E+01 0.28350626570E+01
 0.31172774521E+01 0.35896367073E+01 0.42395229617E+01 0.50274444190E+01 0.58830555853E+01
 0.66827717237E+01 0.72255350215E+01 0.74120182136E+01 0.62431505921E+01 0.58144657589E+01
 0.58144864977E+01 0.62431789932E+01 0.68583683641E+01 0.73062661885E+01 0.73075570174E+01
 0.67963165459E+01 0.59414429769E+01 0.50273503050E+01 0.42137239152E+01 0.35740584785E+01
 0.31434100906E+01 0.29293054920E+01 0.29292808989E+01 0.31433633127E+01 0.35740419540E+01
 0.42137660588E+01 0.50274444190E+01 0.59415736093E+01 0.67964702051E+01 0.73077082712E+01