    1    1    1    1
  0.1987675E+02  0.3040559E-09  0.3040559E-09  0.3040559E-09  0.5000000E-15
  1.000000000000000E-004
  CAR 
 fcc Si                                  
      4     56      6
 
  0.0000000E+00  0.0000000E+00  0.0000000E+00  0.7513148E-03
      1         -5.369461   1.000000
      2         14.250876   0.000000
      3         14.250934   0.000000
      4         14.250935   0.000000
      5         17.336532   0.000000
      6         17.336552   0.000000
 
  0.9090909E-01  0.3265534E-17  0.3265534E-17  0.6010518E-02
      1         -5.178025   1.000000
      2         12.569006   0.000000
      3         13.924359   0.000000
      4         13.924407   0.000000
      5         17.494035   0.000000
      6         17.855320   0.000000
 
  0.1818182E+00  0.3408567E-17  0.3408567E-17  0.6010518E-02
      1         -4.605688   1.000000
      2          9.663672   0.000000
      3         13.355736   0.000000
      4         13.355784   0.000000
      5         17.306749   0.000000
      6         18.512610   0.000000
 
  0.2727273E+00  0.5633267E-17  0.5633267E-17  0.6010518E-02
      1         -3.660397   1.000000
      2          6.747934   0.000000
      3         12.900265   0.000000
      4         12.900310   0.000000
      5         17.031682   0.000000
      6         17.937558   0.000000
 
  0.3636364E+00  0.1098047E-16  0.1098047E-16  0.6010518E-02
      1         -2.365745   1.000000
      2          4.082100   1.000000
      3         12.628549   0.000000
      4         12.628591   0.000000
      5         16.862051   0.000000
      6         17.085056   0.000000
 
  0.4545455E+00  0.1216434E-16  0.1216434E-16  0.6010518E-02
      1         -0.860930   1.000000
      2          1.882299   1.000000
      3         12.513833   0.000000
      4         12.513875   0.000000
      5         16.573989   0.000000
      6         16.574258   0.000000
 
  0.9090909E-01  0.9090909E-01 -0.4053191E-18  0.4507889E-02
      1         -5.114193   1.000000
      2         13.141723   0.000000
      3         13.141759   0.000000
      4         13.550395   0.000000
      5         16.177868   0.000000
      6         18.750768   0.000000
 
  0.1818182E+00  0.9090909E-01  0.1430322E-18  0.1803156E-01
      1         -4.668632   1.000000
      2         10.751934   0.000000
      3         12.404409   0.000000
      4         13.294576   0.000000
      5         16.194984   0.000000
      6         18.850062   0.000000
 
  0.2727273E+00  0.9090909E-01  0.2367733E-17  0.1803156E-01
      1         -3.847094   1.000000
      2          7.837547   0.000000
      3         11.901962   0.000000
      4         12.681397   0.000000
      5         16.267370   0.000000
      6         18.295049   0.000000
 
  0.3636364E+00  0.9090909E-01  0.7714935E-17  0.1803156E-01
      1         -2.665371   1.000000
      2          5.085732   1.000000
      3         11.682466   0.000000
      4         12.040473   0.000000
      5         15.713392   0.000000
      6         18.219614   0.000000
 
  0.4545455E+00  0.9090909E-01  0.6817133E-17  0.1803156E-01
      1         -1.190608   1.000000
      2          2.691645   1.000000
      3         11.456496   0.000000
      4         11.746149   0.000000
      5         15.478421   0.000000
      6         17.770924   0.000000
 
 -0.4545455E+00  0.9090909E-01 -0.1126653E-16  0.1803156E-01
      1         -0.327474   1.000000
      2          1.597533   1.000000
      3         11.004438   0.000000
      4         12.068464   0.000000
      5         15.735723   0.000000
      6         17.259487   0.000000
 
 -0.3636364E+00  0.9090909E-01 -0.1424600E-16  0.1803156E-01
      1         -1.703575   1.000000
      2          3.436549   1.000000
      3         10.769240   0.000000
      4         12.590166   0.000000
      5         16.432130   0.000000
      6         17.164110   0.000000
 
 -0.2727273E+00  0.9090909E-01 -0.1098047E-16  0.1803156E-01
      1         -3.097871   1.000000
      2          5.976487   1.000000
      3         10.806263   0.000000
      4         13.224938   0.000000
      5         17.453102   0.000000
      6         17.542756   0.000000
 
 -0.1818182E+00  0.9090909E-01 -0.5633267E-17  0.1803156E-01
      1         -4.162331   1.000000
      2          8.808718   0.000000
      3         11.141842   0.000000
      4         13.854820   0.000000
      5         17.933182   0.000000
      6         18.154579   0.000000
 
 -0.9090909E-01  0.9090909E-01 -0.6531069E-17  0.9015778E-02
      1         -4.859614   1.000000
      2         11.582592   0.000000
      3         11.908807   0.000000
      4         14.235617   0.000000
      5         17.713878   0.000000
      6         17.834960   0.000000
 
  0.1818182E+00  0.1818182E+00  0.3352698E-17  0.4507889E-02
      1         -4.350602   1.000000
      2         11.545784   0.000000
      3         11.545814   0.000000
      4         11.842160   0.000000
      5         14.404524   0.000000
      6         16.938718   0.000000
 
  0.2727273E+00  0.1818182E+00  0.3265534E-17  0.1803156E-01
      1         -3.655194   1.000000
      2          9.128517   0.000000
      3         10.946752   0.000000
      4         11.317142   0.000000
      5         14.444018   0.000000
      6         16.085071   0.000000
 
  0.3636364E+00  0.1818182E+00  0.6531069E-17  0.1803156E-01
      1         -2.593651   1.000000
      2          6.393180   0.438632
      3         10.334817   0.000000
      4         10.651884   0.000000
      5         14.146583   0.000000
      6         17.421281   0.000000
 
  0.4545455E+00  0.1818182E+00  0.7714935E-17  0.1803156E-01
      1         -1.203961   1.000000
      2          3.894046   1.000000
      3          9.393943   0.000000
      4         10.675254   0.000000
      5         13.995850   0.000000
      6         19.218310   0.000000
 
 -0.4545455E+00  0.1818182E+00  0.1322351E-16  0.1803156E-01
      1          0.163492   1.000000
      2          2.075427   1.000000
      3          8.660147   0.000000
      4         11.007392   0.000000
      5         14.283282   0.000000
      6         19.210621   0.000000
 
 -0.3636364E+00  0.1818182E+00 -0.1126653E-16  0.1803156E-01
      1         -0.700648   1.000000
      2          3.173126   1.000000
      3          8.210960   0.000000
      4         11.626619   0.000000
      5         14.985915   0.000000
      6         18.820101   0.000000
 
 -0.2727273E+00  0.1818182E+00 -0.1216434E-16  0.1803156E-01
      1         -2.168013   1.000000
      2          5.551638   1.000000
      3          8.084730   0.000000
      4         12.469027   0.000000
      5         16.055493   0.000000
      6         18.800731   0.000000
 
 -0.1818182E+00  0.1818182E+00 -0.6817133E-17  0.9015778E-02
      1         -3.344578   1.000000
      2          8.143235   0.000000
      3          8.420261   0.000000
      4         13.371452   0.000000
      5         17.389170   0.000000
      6         19.045888   0.000000
 
  0.2727273E+00  0.2727273E+00  0.2947379E-17  0.4507889E-02
      1         -3.086729   1.000000
      2          9.404267   0.000000
      3         10.244233   0.000000
      4         10.244261   0.000000
      5         12.941823   0.000000
      6         14.250195   0.000000
 
  0.3636364E+00  0.2727273E+00  0.4826786E-17  0.1803156E-01
      1         -2.149593   1.000000
      2          7.553835   0.000000
      3          8.905394   0.000000
      4          9.849336   0.000000
      5         12.941513   0.000000
      6         14.454506   0.000000
 
  0.4545455E+00  0.2727273E+00  0.4449401E-17  0.1803156E-01
      1         -0.868724   1.000000
      2          5.298681   1.000000
      3          7.470093   0.000000
      4          9.780354   0.000000
      5         12.838819   0.000000
      6         16.567855   0.000000
 
 -0.4545455E+00  0.2727273E+00  0.9957973E-17  0.1803156E-01
      1          0.611012   1.000000
      2          3.251065   1.000000
      3          6.443557   0.193004
      4         10.036876   0.000000
      5         13.079666   0.000000
      6         19.082182   0.000000
 
 -0.3636364E+00  0.2727273E+00 -0.1453207E-16  0.1803156E-01
      1          0.576457   1.000000
      2          3.326122   1.000000
      3          5.787034   1.000000
      4         10.607870   0.000000
      5         13.718831   0.000000
      6         21.078114   0.000000
 
 -0.2727273E+00  0.2727273E+00 -0.1126653E-16  0.9015778E-02
      1         -0.897291   1.000000
      2          5.412993   1.000000
      3          5.571078   1.000000
      4         11.456766   0.000000
      5         14.732944   0.000000
      6         20.469152   0.000000
 
  0.3636364E+00  0.3636364E+00  0.2542060E-17  0.4507889E-02
      1         -1.338729   1.000000
      2          6.471702   0.102952
      3          9.350469   0.000000
      4          9.350496   0.000000
      5         11.934994   0.000000
      6         12.711557   0.000000
 
  0.4545455E+00  0.3636364E+00  0.9163594E-17  0.1803156E-01
      1         -0.179261   1.000000
      2          5.034958   1.000000
      3          7.692682   0.000000
      4          9.177916   0.000000
      5         12.054734   0.000000
      6         13.624832   0.000000
 
 -0.4545455E+00  0.3636364E+00 -0.1084932E-15  0.1803156E-01
      1          1.241784   1.000000
      2          3.817458   1.000000
      3          5.599575   1.000000
      4          9.336537   0.000000
      5         12.238504   0.000000
      6         16.120190   0.000000
 
 -0.3636364E+00  0.3636364E+00 -0.2196094E-16  0.9015778E-02
      1          1.814092   1.000000
      2          3.625791   1.000000
      3          4.235174   1.000000
      4          9.820918   0.000000
      5         12.792431   0.000000
      6         18.956774   0.000000
 
  0.4545455E+00  0.4545455E+00  0.6300077E-17  0.4507889E-02
      1          0.846254   1.000000
      2          3.574255   1.000000
      3          8.898740   0.000000
      4          8.898766   0.000000
      5         11.429653   0.000000
      6         12.038804   0.000000
 
 -0.4545455E+00  0.4545455E+00 -0.2432867E-16  0.9015778E-02
      1          1.885609   1.000000
      2          2.645014   1.000000
      3          7.393555   0.000000
      4          8.951867   0.000000
      5         11.762878   0.000000
      6         13.356591   0.000000
 
  0.2727273E+00  0.1818182E+00  0.9090909E-01  0.1803156E-01
      1         -4.098133   1.000000
      2          9.861657   0.000000
      3         10.201998   0.000000
      4         13.122784   0.000000
      5         16.172536   0.000000
      6         17.608024   0.000000
 
  0.3636364E+00  0.1818182E+00  0.9090909E-01  0.3606311E-01
      1         -3.156272   1.000000
      2          7.177124   0.000000
      3          9.601288   0.000000
      4         12.346980   0.000000
      5         16.226910   0.000000
      6         17.865375   0.000000
 
  0.4545455E+00  0.1818182E+00  0.9090909E-01  0.3606311E-01
      1         -1.866242   1.000000
      2          4.547894   1.000000
      3          9.444000   0.000000
      4         11.458135   0.000000
      5         15.915328   0.000000
      6         17.741890   0.000000
 
 -0.4545455E+00  0.1818182E+00  0.9090909E-01  0.3606311E-01
      1         -0.367534   1.000000
      2          2.362401   1.000000
      3          9.492426   0.000000
      4         10.839276   0.000000
      5         15.859636   0.000000
      6         17.174587   0.000000
 
  0.3636364E+00  0.2727273E+00  0.9090909E-01  0.1803156E-01
      1         -2.839052   1.000000
      2          8.308793   0.000000
      3          8.826509   0.000000
      4         10.689334   0.000000
      5         14.809564   0.000000
      6         15.424970   0.000000
 
  0.4545455E+00  0.2727273E+00  0.9090909E-01  0.3606311E-01
      1         -1.665863   1.000000
      2          5.930045   1.000000
      3          8.205928   0.000000
      4          9.685866   0.000000
      5         14.831491   0.000000
      6         17.013062   0.000000
 
 -0.4545455E+00  0.2727273E+00  0.9090909E-01  0.3606311E-01
      1         -0.204293   1.000000
      2          3.613252   1.000000
      3          7.738046   0.000000
      4          9.254563   0.000000
      5         14.923267   0.000000
      6         18.726473   0.000000
 
 -0.3636364E+00  0.2727273E+00  0.9090909E-01  0.3606311E-01
      1          0.639567   1.000000
      2          2.556435   1.000000
      3          7.209489   0.000000
      4          9.537911   0.000000
      5         15.351087   0.000000
      6         18.558643   0.000000
 
 -0.2727273E+00  0.2727273E+00  0.9090909E-01  0.3606311E-01
      1         -0.721596   1.000000
      2          4.373709   1.000000
      3          6.888240   0.000000
      4         10.276120   0.000000
      5         16.062939   0.000000
      6         18.324057   0.000000
 
 -0.1818182E+00  0.2727273E+00  0.9090909E-01  0.1803156E-01
      1         -2.101295   1.000000
      2          6.729615   0.000000
      3          7.005741   0.000000
      4         11.310541   0.000000
      5         16.851130   0.000000
      6         17.951467   0.000000
 
  0.4545455E+00  0.3636364E+00  0.9090909E-01  0.1803156E-01
      1         -1.100474   1.000000
      2          6.381360   0.505073
      3          7.886585   0.000000
      4          8.557624   0.000000
      5         13.859635   0.000000
      6         14.209704   0.000000
 
 -0.4545455E+00  0.3636364E+00  0.9090909E-01  0.3606311E-01
      1          0.266758   1.000000
      2          4.820994   1.000000
      3          6.284471   0.916658
      4          8.212707   0.000000
      5         14.057407   0.000000
      6         16.386719   0.000000
 
 -0.3636364E+00  0.3636364E+00  0.9090909E-01  0.3606311E-01
      1          1.564307   1.000000
      2          3.393785   1.000000
      3          5.177821   1.000000
      4          8.531728   0.000000
      5         14.435165   0.000000
      6         18.997794   0.000000
 
 -0.2727273E+00  0.3636364E+00  0.9090909E-01  0.1803156E-01
      1          0.692944   1.000000
      2          4.555587   1.000000
      3          4.600863   1.000000
      4          9.242970   0.000000
      5         15.146192   0.000000
      6         20.406953   0.000000
 
 -0.4545455E+00  0.4545455E+00  0.9090909E-01  0.1803156E-01
      1          1.059048   1.000000
      2          3.756072   1.000000
      3          7.412387   0.000000
      4          7.764128   0.000000
      5         13.380030   0.000000
      6         13.655083   0.000000
 
 -0.3636364E+00  0.4545455E+00  0.9090909E-01  0.1803156E-01
      1          2.148100   1.000000
      2          3.135870   1.000000
      3          5.524825   1.000000
      4          7.889521   0.000000
      5         13.802461   0.000000
      6         16.166228   0.000000
 
 -0.4545455E+00  0.3636364E+00  0.1818182E+00  0.1803156E-01
      1         -0.399438   1.000000
      2          5.594597   1.000000
      3          6.045074   0.999999
      4          8.400815   0.000000
      5         16.683891   0.000000
      6         17.074375   0.000000
 
 -0.3636364E+00  0.3636364E+00  0.1818182E+00  0.3606311E-01
      1          1.060318   1.000000
      2          3.736231   1.000000
      3          5.905648   1.000000
      4          7.597927   0.000000
      5         16.807498   0.000000
      6         18.370629   0.000000
 
 -0.3636364E+00  0.4545455E+00  0.1818182E+00  0.1803156E-01
      1          1.640487   1.000000
      2          4.167343   1.000000
      3          5.562079   1.000000
      4          6.501945   0.045265
      5         16.416228   0.000000
      6         16.623893   0.000000
 
 -0.2727273E+00  0.4545455E+00  0.1818182E+00  0.1803156E-01
      1          2.228558   1.000000
      2          4.112428   1.000000
      3          4.464623   1.000000
      4          6.610023   0.000639
      5         16.866156   0.000000
      6         19.039132   0.000000
