       N       E                     dE             d eps       ncg     rms          rms(c)
DAV:   1    -0.278443218912E+01   -0.27844E+01   -0.10326E+03   732   0.272E+02
DAV:   2    -0.457816012497E+01   -0.17937E+01   -0.16606E+01   966   0.262E+01
DAV:   3    -0.459700792344E+01   -0.18848E-01   -0.18605E-01   816   0.264E+00
DAV:   4    -0.459703249252E+01   -0.24569E-04   -0.24568E-04   990   0.101E-01
DAV:   5    -0.459703253054E+01   -0.38028E-07   -0.37923E-07   786   0.275E-03    0.644E-01
DAV:   6    -0.458777581308E+01    0.92567E-02   -0.48038E-03   768   0.394E-01    0.380E-01
DAV:   7    -0.458311825578E+01    0.46576E-02   -0.96550E-03   720   0.555E-01    0.277E-02
DAV:   8    -0.458311666420E+01    0.15916E-05   -0.61228E-05   714   0.667E-02
   1 F= -.45831167E+01 E0= -.45811837E+01  d E =-.386598E-02
