 vasp.6.3.2 27Jun22 (build Oct 19 2022 15:35:57) complex                        
  
 executed on             LinuxIFC date 2023.09.18  23:05:33
 running    1 mpi-ranks, with    1 threads/rank
 distrk:  each k-point on    1 cores,    1 groups
 distr:  one band on NCORE=   1 cores,    1 groups


--------------------------------------------------------------------------------------------------------


 INCAR:
   SYSTEM = fcc Si
   ISTART = 0
   ICHARG = 2
   ENCUT = 240
   ISMEAR = 0
   SIGMA = 0.1

 POTCAR:   PAW_PBE Si 05Jan2001                   
 POTCAR:   PAW_PBE Si 05Jan2001                   
   VRHFIN =Si: s2p2                                                                                 
   LEXCH  = PE                                                                                      
   EATOM  =   103.0669 eV,    7.5752 Ry                                                             
                                                                                                    
   TITEL  = PAW_PBE Si 05Jan2001                                                                    
   LULTRA =        F    use ultrasoft PP ?                                                          
   IUNSCR =        1    unscreen: 0-lin 1-nonlin 2-no                                               
   RPACOR =    1.500    partial core radius                                                         
   POMASS =   28.085; ZVAL   =    4.000    mass and valenz                                          
   RCORE  =    1.900    outmost cutoff radius                                                       
   RWIGS  =    2.480; RWIGS  =    1.312    wigner-seitz radius (au A)                               
   ENMAX  =  245.345; ENMIN  =  184.009 eV                                                          
   ICORE  =        2    local potential                                                             
   LCOR   =        T    correct aug charges                                                         
   LPAW   =        T    paw PP                                                                      
   EAUG   =  322.069                                                                                
   DEXC   =    -.007                                                                                
   RMAX   =    2.944    core radius for proj-oper                                                   
   RAUG   =    1.300    factor for augmentation sphere                                              
   RDEP   =    1.993    radius for radial grids                                                     
   QCUT   =   -4.246; QGAM   =    8.493    optimization parameters                                  
                                                                                                    
   Description                                                                                      
     l     E      TYP  RCUT    TYP  RCUT                                                            
     0   .000     23  1.900                                                                         
     0   .000     23  1.900                                                                         
     1   .000     23  1.900                                                                         
     1   .000     23  1.900                                                                         
     2   .000      7  1.900                                                                         
  local pseudopotential read in
  partial core-charges read in
  atomic valenz-charges read in
  non local Contribution for L=           0  read in
    real space projection operators read in
  non local Contribution for L=           0  read in
    real space projection operators read in
  non local Contribution for L=           1  read in
    real space projection operators read in
  non local Contribution for L=           1  read in
    real space projection operators read in
    PAW grid and wavefunctions read in
 
   number of l-projection  operators is LMAX  =           4
   number of lm-projection operators is LMMAX =           8
 
 PAW_PBE Si 05Jan2001                   :
 energy of atom  1       EATOM= -103.0669
 kinetic energy error for atom=    0.0061 (will be added to EATOM!!)
 
 
 POSCAR: fcc:
  positions in cartesian coordinates
  No initial velocities read in
 exchange correlation table for  LEXCH =        8
   RHO(1)=    0.500       N(1)  =     2000
   RHO(2)=  100.500       N(2)  =     4000
 


--------------------------------------------------------------------------------------------------------


 ion  position               nearest neighbor table
   1  0.000  0.000  0.000-
 
  LATTYP: Found a face centered cubic cell.
 ALAT       =     4.3000000000
  
  Lattice vectors:
  
 A1 = (   2.1500000000,   2.1500000000,   0.0000000000)
 A2 = (   0.0000000000,   2.1500000000,   2.1500000000)
 A3 = (   2.1500000000,   0.0000000000,   2.1500000000)


Analysis of symmetry for initial positions (statically):
=====================================================================
 Subroutine PRICEL returns:
 Original cell was already a primitive cell.
 

 Routine SETGRP: Setting up the symmetry group for a 
 face centered cubic supercell.


 Subroutine GETGRP returns: Found 48 space group operations
 (whereof 48 operations were pure point group operations)
 out of a pool of 48 trial point group operations.


The static configuration has the point symmetry O_h .


Analysis of symmetry for dynamics (positions and initial velocities):
=====================================================================
 Subroutine PRICEL returns:
 Original cell was already a primitive cell.
 

 Routine SETGRP: Setting up the symmetry group for a 
 face centered cubic supercell.


 Subroutine GETGRP returns: Found 48 space group operations
 (whereof 48 operations were pure point group operations)
 out of a pool of 48 trial point group operations.


The dynamic configuration has the point symmetry O_h .


 Subroutine INISYM returns: Found 48 space group operations
 (whereof 48 operations are pure point group operations),
 and found     1 'primitive' translations


----------------------------------------------------------------------------------------

                                     Primitive cell                                     

  volume of cell :      19.8767

  direct lattice vectors                    reciprocal lattice vectors
     2.150000000  2.150000000  0.000000000     0.232558140  0.232558140 -0.232558140
     0.000000000  2.150000000  2.150000000    -0.232558140  0.232558140  0.232558140
     2.150000000  0.000000000  2.150000000     0.232558140 -0.232558140  0.232558140

  length of vectors
     3.040559159  3.040559159  3.040559159     0.402802513  0.402802513  0.402802513

  position of ions in fractional coordinates (direct lattice)
     0.000000000  0.000000000  0.000000000

  ion indices of the primitive-cell ions
   primitive index   ion index
                 1           1

----------------------------------------------------------------------------------------

 
 
 KPOINTS: K-Points                                

Automatic generation of k-mesh.
 Grid dimensions read from file:
 generate k-points for:   11   11   11

 Generating k-lattice:

  Cartesian coordinates                     Fractional coordinates (reciprocal lattice)
     0.021141649  0.021141649 -0.021141649     0.090909091  0.000000000  0.000000000
    -0.021141649  0.021141649  0.021141649     0.000000000  0.090909091 -0.000000000
     0.021141649 -0.021141649  0.021141649    -0.000000000 -0.000000000  0.090909091

  Length of vectors
     0.036618410  0.036618410  0.036618410

  Shift w.r.t. Gamma in fractional coordinates (k-lattice)
     0.000000000  0.000000000  0.000000000

 
 Subroutine IBZKPT returns following result:
 ===========================================
 
 Found     56 irreducible k-points:
 
 Following reciprocal coordinates:
            Coordinates               Weight
  0.000000  0.000000  0.000000      1.000000
  0.090909  0.000000  0.000000      8.000000
  0.181818  0.000000  0.000000      8.000000
  0.272727  0.000000  0.000000      8.000000
  0.363636  0.000000  0.000000      8.000000
  0.454545  0.000000  0.000000      8.000000
  0.090909  0.090909 -0.000000      6.000000
  0.181818  0.090909  0.000000     24.000000
  0.272727  0.090909  0.000000     24.000000
  0.363636  0.090909  0.000000     24.000000
  0.454545  0.090909  0.000000     24.000000
 -0.454545  0.090909 -0.000000     24.000000
 -0.363636  0.090909 -0.000000     24.000000
 -0.272727  0.090909 -0.000000     24.000000
 -0.181818  0.090909 -0.000000     24.000000
 -0.090909  0.090909 -0.000000     12.000000
  0.181818  0.181818  0.000000      6.000000
  0.272727  0.181818  0.000000     24.000000
  0.363636  0.181818  0.000000     24.000000
  0.454545  0.181818  0.000000     24.000000
 -0.454545  0.181818  0.000000     24.000000
 -0.363636  0.181818 -0.000000     24.000000
 -0.272727  0.181818 -0.000000     24.000000
 -0.181818  0.181818 -0.000000     12.000000
  0.272727  0.272727  0.000000      6.000000
  0.363636  0.272727  0.000000     24.000000
  0.454545  0.272727  0.000000     24.000000
 -0.454545  0.272727  0.000000     24.000000
 -0.363636  0.272727 -0.000000     24.000000
 -0.272727  0.272727 -0.000000     12.000000
  0.363636  0.363636  0.000000      6.000000
  0.454545  0.363636  0.000000     24.000000
 -0.454545  0.363636 -0.000000     24.000000
 -0.363636  0.363636 -0.000000     12.000000
  0.454545  0.454545  0.000000      6.000000
 -0.454545  0.454545 -0.000000     12.000000
  0.272727  0.181818  0.090909     24.000000
  0.363636  0.181818  0.090909     48.000000
  0.454545  0.181818  0.090909     48.000000
 -0.454545  0.181818  0.090909     48.000000
  0.363636  0.272727  0.090909     24.000000
  0.454545  0.272727  0.090909     48.000000
 -0.454545  0.272727  0.090909     48.000000
 -0.363636  0.272727  0.090909     48.000000
 -0.272727  0.272727  0.090909     48.000000
 -0.181818  0.272727  0.090909     24.000000
  0.454545  0.363636  0.090909     24.000000
 -0.454545  0.363636  0.090909     48.000000
 -0.363636  0.363636  0.090909     48.000000
 -0.272727  0.363636  0.090909     24.000000
 -0.454545  0.454545  0.090909     24.000000
 -0.363636  0.454545  0.090909     24.000000
 -0.454545  0.363636  0.181818     24.000000
 -0.363636  0.363636  0.181818     48.000000
 -0.363636  0.454545  0.181818     24.000000
 -0.272727  0.454545  0.181818     24.000000
 
 Following cartesian coordinates:
            Coordinates               Weight
  0.000000  0.000000  0.000000      1.000000
  0.090909  0.090909 -0.090909      8.000000
  0.181818  0.181818 -0.181818      8.000000
  0.272727  0.272727 -0.272727      8.000000
  0.363636  0.363636 -0.363636      8.000000
  0.454545  0.454545 -0.454545      8.000000
 -0.000000  0.181818  0.000000      6.000000
  0.090909  0.272727 -0.090909     24.000000
  0.181818  0.363636 -0.181818     24.000000
  0.272727  0.454545 -0.272727     24.000000
  0.363636  0.545455 -0.363636     24.000000
 -0.545455 -0.363636  0.545455     24.000000
 -0.454545 -0.272727  0.454545     24.000000
 -0.363636 -0.181818  0.363636     24.000000
 -0.272727 -0.090909  0.272727     24.000000
 -0.181818 -0.000000  0.181818     12.000000
  0.000000  0.363636  0.000000      6.000000
  0.090909  0.454545 -0.090909     24.000000
  0.181818  0.545455 -0.181818     24.000000
  0.272727  0.636364 -0.272727     24.000000
 -0.636364 -0.272727  0.636364     24.000000
 -0.545455 -0.181818  0.545455     24.000000
 -0.454545 -0.090909  0.454545     24.000000
 -0.363636  0.000000  0.363636     12.000000
  0.000000  0.545455 -0.000000      6.000000
  0.090909  0.636364 -0.090909     24.000000
  0.181818  0.727273 -0.181818     24.000000
 -0.727273 -0.181818  0.727273     24.000000
 -0.636364 -0.090909  0.636364     24.000000
 -0.545455  0.000000  0.545455     12.000000
  0.000000  0.727273  0.000000      6.000000
  0.090909  0.818182 -0.090909     24.000000
 -0.818182 -0.090909  0.818182     24.000000
 -0.727273 -0.000000  0.727273     12.000000
  0.000000  0.909091  0.000000      6.000000
 -0.909091 -0.000000  0.909091     12.000000
  0.181818  0.363636  0.000000     24.000000
  0.272727  0.454545 -0.090909     48.000000
  0.363636  0.545455 -0.181818     48.000000
 -0.545455 -0.363636  0.727273     48.000000
  0.181818  0.545455  0.000000     24.000000
  0.272727  0.636364 -0.090909     48.000000
 -0.636364 -0.272727  0.818182     48.000000
 -0.545455 -0.181818  0.727273     48.000000
 -0.454545 -0.090909  0.636364     48.000000
 -0.363636  0.000000  0.545455     24.000000
  0.181818  0.727273  0.000000     24.000000
 -0.727273 -0.181818  0.909091     48.000000
 -0.636364 -0.090909  0.818182     48.000000
 -0.545455 -0.000000  0.727273     24.000000
 -0.818182 -0.090909  1.000000     24.000000
 -0.727273 -0.000000  0.909091     24.000000
 -0.636364 -0.272727  1.000000     24.000000
 -0.545455 -0.181818  0.909091     48.000000
 -0.636364 -0.090909  1.000000     24.000000
 -0.545455 -0.000000  0.909091     24.000000
 


--------------------------------------------------------------------------------------------------------




 Dimension of arrays:
   k-points           NKPTS =     56   k-points in BZ     NKDIM =     56   number of bands    NBANDS=      6
   number of dos      NEDOS =    301   number of ions     NIONS =      1
   non local maximal  LDIM  =      4   non local SUM 2l+1 LMDIM =      8
   total plane-waves  NPLWV =   1728
   max r-space proj   IRMAX =      1   max aug-charges    IRDMAX=   3106
   dimension x,y,z NGX =    12 NGY =   12 NGZ =   12
   dimension x,y,z NGXF=    24 NGYF=   24 NGZF=   24
   support grid    NGXF=    24 NGYF=   24 NGZF=   24
   ions per type =               1
   NGX,Y,Z   is equivalent  to a cutoff of   6.56,  6.56,  6.56 a.u.
   NGXF,Y,Z  is equivalent  to a cutoff of  13.12, 13.12, 13.12 a.u.

 SYSTEM =  fcc Si                                  
 POSCAR =  fcc:                                    

 Startparameter for this run:
   NWRITE =      2    write-flag & timer
   PREC   = normal    normal or accurate (medium, high low for compatibility)
   ISTART =      0    job   : 0-new  1-cont  2-samecut
   ICHARG =      2    charge: 1-file 2-atom 10-const
   ISPIN  =      1    spin polarized calculation?
   LNONCOLLINEAR =      F non collinear calculations
   LSORBIT =      F    spin-orbit coupling
   INIWAV =      1    electr: 0-lowe 1-rand  2-diag
   LASPH  =      F    aspherical Exc in radial PAW
 Electronic Relaxation 1
   ENCUT  =  240.0 eV  17.64 Ry    4.20 a.u.   3.84  3.84  3.84*2*pi/ulx,y,z
   ENINI  =  240.0     initial cutoff
   ENAUG  =  322.1 eV  augmentation charge cutoff
   NELM   =     60;   NELMIN=  2; NELMDL= -5     # of ELM steps 
   EDIFF  = 0.1E-03   stopping-criterion for ELM
   LREAL  =      F    real-space projection
   NLSPLINE    = F    spline interpolate recip. space projectors
   LCOMPAT=      F    compatible to vasp.4.4
   GGA_COMPAT  = T    GGA compatible to vasp.4.4-vasp.4.6
   LMAXPAW     = -100 max onsite density
   LMAXMIX     =    2 max onsite mixed and CHGCAR
   VOSKOWN=      0    Vosko Wilk Nusair interpolation
   ROPT   =    0.00000
 Ionic relaxation
   EDIFFG = 0.1E-02   stopping-criterion for IOM
   NSW    =      0    number of steps for IOM
   NBLOCK =      1;   KBLOCK =      1    inner block; outer block 
   IBRION =     -1    ionic relax: 0-MD 1-quasi-New 2-CG
   NFREE  =      0    steps in history (QN), initial steepest desc. (CG)
   ISIF   =      2    stress and relaxation
   IWAVPR =     10    prediction:  0-non 1-charg 2-wave 3-comb
   ISYM   =      2    0-nonsym 1-usesym 2-fastsym
   LCORR  =      T    Harris-Foulkes like correction to forces

   POTIM  = 0.5000    time-step for ionic-motion
   TEIN   =    0.0    initial temperature
   TEBEG  =    0.0;   TEEND  =   0.0 temperature during run
   SMASS  =  -3.00    Nose mass-parameter (am)
   estimated Nose-frequenzy (Omega)   =  0.10E-29 period in steps = 0.13E+47 mass=  -0.211E-27a.u.
   SCALEE = 1.0000    scale energy and forces
   NPACO  =    256;   APACO  = 10.0  distance and # of slots for P.C.
   PSTRESS=    0.0 pullay stress

  Mass of Ions in am
   POMASS =  28.09
  Ionic Valenz
   ZVAL   =   4.00
  Atomic Wigner-Seitz radii
   RWIGS  =  -1.00
  virtual crystal weights 
   VCA    =   1.00
   NELECT =       4.0000    total number of electrons
   NUPDOWN=      -1.0000    fix difference up-down

 DOS related values:
   EMIN   =  10.00;   EMAX   =-10.00  energy-range for DOS
   EFERMI =   0.00
   ISMEAR =     0;   SIGMA  =   0.10  broadening in eV -4-tet -1-fermi 0-gaus

 Electronic relaxation 2 (details)
   IALGO  =     38    algorithm
   LDIAG  =      T    sub-space diagonalisation (order eigenvalues)
   LSUBROT=      F    optimize rotation matrix (better conditioning)
   TURBO    =      0    0=normal 1=particle mesh
   IRESTART =      0    0=no restart 2=restart with 2 vectors
   NREBOOT  =      0    no. of reboots
   NMIN     =      0    reboot dimension
   EREF     =   0.00    reference energy to select bands
   IMIX   =      4    mixing-type and parameters
     AMIX     =   0.40;   BMIX     =  1.00
     AMIX_MAG =   1.60;   BMIX_MAG =  1.00
     AMIN     =   0.10
     WC   =   100.;   INIMIX=   1;  MIXPRE=   1;  MAXMIX= -45

 Intra band minimization:
   WEIMIN = 0.0000     energy-eigenvalue tresh-hold
   EBREAK =  0.42E-05  absolut break condition
   DEPER  =   0.30     relativ break condition  

   TIME   =   0.40     timestep for ELM

  volume/ion in A,a.u.               =      19.88       134.13
  Fermi-wavevector in a.u.,A,eV,Ry     =   0.959356  1.812920 12.522306  0.920364
  Thomas-Fermi vector in A             =   2.088545
 
 Write flags
   LWAVE        =      T    write WAVECAR
   LDOWNSAMPLE  =      F    k-point downsampling of WAVECAR
   LCHARG       =      T    write CHGCAR
   LVTOT        =      F    write LOCPOT, total local potential
   LVHAR        =      F    write LOCPOT, Hartree potential only
   LELF         =      F    write electronic localiz. function (ELF)
   LORBIT       =      0    0 simple, 1 ext, 2 COOP (PROOUT), +10 PAW based schemes


 Dipole corrections
   LMONO  =      F    monopole corrections only (constant potential shift)
   LDIPOL =      F    correct potential (dipole corrections)
   IDIPOL =      0    1-x, 2-y, 3-z, 4-all directions 
   EPSILON=  1.0000000 bulk dielectric constant

 Exchange correlation treatment:
   GGA     =    --    GGA type
   LEXCH   =     8    internal setting for exchange type
   LIBXC   =     F    Libxc                    
   VOSKOWN =     0    Vosko Wilk Nusair interpolation
   LHFCALC =     F    Hartree Fock is set to
   LHFONE  =     F    Hartree Fock one center treatment
   AEXX    =    0.0000 exact exchange contribution

 Linear response parameters
   LEPSILON=     F    determine dielectric tensor
   LRPA    =     F    only Hartree local field effects (RPA)
   LNABLA  =     F    use nabla operator in PAW spheres
   LVEL    =     F    velocity operator in full k-point grid
   CSHIFT  =0.1000    complex shift for real part using Kramers Kronig
   OMEGAMAX=  -1.0    maximum frequency
   DEG_THRESHOLD= 0.2000000E-02 threshold for treating states as degnerate
   RTIME   =   -0.100 relaxation time in fs
  (WPLASMAI=    0.000 imaginary part of plasma frequency in eV, 0.658/RTIME)
   DFIELD  = 0.0000000 0.0000000 0.0000000 field for delta impulse in time
 
  Optional k-point grid parameters
   LKPOINTS_OPT  =     F    use optional k-point grid
   KPOINTS_OPT_MODE=     1    mode for optional k-point grid
 
 Orbital magnetization related:
   ORBITALMAG=     F  switch on orbital magnetization
   LCHIMAG   =     F  perturbation theory with respect to B field
   DQ        =  0.001000  dq finite difference perturbation B field
   LLRAUG    =     F  two centre corrections for induced B field



--------------------------------------------------------------------------------------------------------


 Static calculation
 charge density and potential will be updated during run
 non-spin polarized calculation
 Variant of blocked Davidson
 Davidson routine will perform the subspace rotation
 perform sub-space diagonalisation
    after iterative eigenvector-optimisation
 modified Broyden-mixing scheme, WC =      100.0
 initial mixing is a Kerker type mixing with AMIX =  0.4000 and BMIX =      1.0000
 Hartree-type preconditioning will be used
 using additional bands            4
 reciprocal scheme for non local part
 use partial core corrections
 calculate Harris-corrections to forces 
   (improved forces if not selfconsistent)
 use gradient corrections 
 use of overlap-Matrix (Vanderbilt PP)
 Gauss-broadening in eV      SIGMA  =   0.10


--------------------------------------------------------------------------------------------------------


  energy-cutoff  :      240.00
  volume of cell :       19.88
      direct lattice vectors                 reciprocal lattice vectors
     2.150000000  2.150000000  0.000000000     0.232558140  0.232558140 -0.232558140
     0.000000000  2.150000000  2.150000000    -0.232558140  0.232558140  0.232558140
     2.150000000  0.000000000  2.150000000     0.232558140 -0.232558140  0.232558140

  length of vectors
     3.040559159  3.040559159  3.040559159     0.402802513  0.402802513  0.402802513


 
 k-points in units of 2pi/SCALE and weight: K-Points                                
   0.00000000  0.00000000  0.00000000       0.001
   0.09090909  0.09090909 -0.09090909       0.006
   0.18181818  0.18181818 -0.18181818       0.006
   0.27272727  0.27272727 -0.27272727       0.006
   0.36363636  0.36363636 -0.36363636       0.006
   0.45454545  0.45454545 -0.45454545       0.006
   0.00000000  0.18181818 -0.00000000       0.005
   0.09090909  0.27272727 -0.09090909       0.018
   0.18181818  0.36363636 -0.18181818       0.018
   0.27272727  0.45454545 -0.27272727       0.018
   0.36363636  0.54545455 -0.36363636       0.018
  -0.54545455 -0.36363636  0.54545455       0.018
  -0.45454545 -0.27272727  0.45454545       0.018
  -0.36363636 -0.18181818  0.36363636       0.018
  -0.27272727 -0.09090909  0.27272727       0.018
  -0.18181818 -0.00000000  0.18181818       0.009
   0.00000000  0.36363636  0.00000000       0.005
   0.09090909  0.45454545 -0.09090909       0.018
   0.18181818  0.54545455 -0.18181818       0.018
   0.27272727  0.63636364 -0.27272727       0.018
  -0.63636364 -0.27272727  0.63636364       0.018
  -0.54545455 -0.18181818  0.54545455       0.018
  -0.45454545 -0.09090909  0.45454545       0.018
  -0.36363636  0.00000000  0.36363636       0.009
  -0.00000000  0.54545455  0.00000000       0.005
   0.09090909  0.63636364 -0.09090909       0.018
   0.18181818  0.72727273 -0.18181818       0.018
  -0.72727273 -0.18181818  0.72727273       0.018
  -0.63636364 -0.09090909  0.63636364       0.018
  -0.54545455  0.00000000  0.54545455       0.009
   0.00000000  0.72727273  0.00000000       0.005
   0.09090909  0.81818182 -0.09090909       0.018
  -0.81818182 -0.09090909  0.81818182       0.018
  -0.72727273 -0.00000000  0.72727273       0.009
   0.00000000  0.90909091  0.00000000       0.005
  -0.90909091 -0.00000000  0.90909091       0.009
   0.18181818  0.36363636  0.00000000       0.018
   0.27272727  0.45454545 -0.09090909       0.036
   0.36363636  0.54545455 -0.18181818       0.036
  -0.54545455 -0.36363636  0.72727273       0.036
   0.18181818  0.54545455  0.00000000       0.018
   0.27272727  0.63636364 -0.09090909       0.036
  -0.63636364 -0.27272727  0.81818182       0.036
  -0.54545455 -0.18181818  0.72727273       0.036
  -0.45454545 -0.09090909  0.63636364       0.036
  -0.36363636  0.00000000  0.54545455       0.018
   0.18181818  0.72727273  0.00000000       0.018
  -0.72727273 -0.18181818  0.90909091       0.036
  -0.63636364 -0.09090909  0.81818182       0.036
  -0.54545455 -0.00000000  0.72727273       0.018
  -0.81818182 -0.09090909  1.00000000       0.018
  -0.72727273 -0.00000000  0.90909091       0.018
  -0.63636364 -0.27272727  1.00000000       0.018
  -0.54545455 -0.18181818  0.90909091       0.036
  -0.63636364 -0.09090909  1.00000000       0.018
  -0.54545455 -0.00000000  0.90909091       0.018
 
 k-points in reciprocal lattice and weights: K-Points                                
   0.00000000  0.00000000  0.00000000       0.001
   0.09090909  0.00000000  0.00000000       0.006
   0.18181818  0.00000000  0.00000000       0.006
   0.27272727  0.00000000  0.00000000       0.006
   0.36363636  0.00000000  0.00000000       0.006
   0.45454545  0.00000000  0.00000000       0.006
   0.09090909  0.09090909 -0.00000000       0.005
   0.18181818  0.09090909  0.00000000       0.018
   0.27272727  0.09090909  0.00000000       0.018
   0.36363636  0.09090909  0.00000000       0.018
   0.45454545  0.09090909  0.00000000       0.018
  -0.45454545  0.09090909 -0.00000000       0.018
  -0.36363636  0.09090909 -0.00000000       0.018
  -0.27272727  0.09090909 -0.00000000       0.018
  -0.18181818  0.09090909 -0.00000000       0.018
  -0.09090909  0.09090909 -0.00000000       0.009
   0.18181818  0.18181818  0.00000000       0.005
   0.27272727  0.18181818  0.00000000       0.018
   0.36363636  0.18181818  0.00000000       0.018
   0.45454545  0.18181818  0.00000000       0.018
  -0.45454545  0.18181818  0.00000000       0.018
  -0.36363636  0.18181818 -0.00000000       0.018
  -0.27272727  0.18181818 -0.00000000       0.018
  -0.18181818  0.18181818 -0.00000000       0.009
   0.27272727  0.27272727  0.00000000       0.005
   0.36363636  0.27272727  0.00000000       0.018
   0.45454545  0.27272727  0.00000000       0.018
  -0.45454545  0.27272727  0.00000000       0.018
  -0.36363636  0.27272727 -0.00000000       0.018
  -0.27272727  0.27272727 -0.00000000       0.009
   0.36363636  0.36363636  0.00000000       0.005
   0.45454545  0.36363636  0.00000000       0.018
  -0.45454545  0.36363636 -0.00000000       0.018
  -0.36363636  0.36363636 -0.00000000       0.009
   0.45454545  0.45454545  0.00000000       0.005
  -0.45454545  0.45454545 -0.00000000       0.009
   0.27272727  0.18181818  0.09090909       0.018
   0.36363636  0.18181818  0.09090909       0.036
   0.45454545  0.18181818  0.09090909       0.036
  -0.45454545  0.18181818  0.09090909       0.036
   0.36363636  0.27272727  0.09090909       0.018
   0.45454545  0.27272727  0.09090909       0.036
  -0.45454545  0.27272727  0.09090909       0.036
  -0.36363636  0.27272727  0.09090909       0.036
  -0.27272727  0.27272727  0.09090909       0.036
  -0.18181818  0.27272727  0.09090909       0.018
   0.45454545  0.36363636  0.09090909       0.018
  -0.45454545  0.36363636  0.09090909       0.036
  -0.36363636  0.36363636  0.09090909       0.036
  -0.27272727  0.36363636  0.09090909       0.018
  -0.45454545  0.45454545  0.09090909       0.018
  -0.36363636  0.45454545  0.09090909       0.018
  -0.45454545  0.36363636  0.18181818       0.018
  -0.36363636  0.36363636  0.18181818       0.036
  -0.36363636  0.45454545  0.18181818       0.018
  -0.27272727  0.45454545  0.18181818       0.018
 
 position of ions in fractional coordinates (direct lattice) 
   0.00000000  0.00000000  0.00000000
 
 position of ions in cartesian coordinates  (Angst):
   0.00000000  0.00000000  0.00000000
 


--------------------------------------------------------------------------------------------------------


 k-point   1 :   0.0000 0.0000 0.0000  plane waves:     169
 k-point   2 :   0.0909 0.0000 0.0000  plane waves:     169
 k-point   3 :   0.1818 0.0000 0.0000  plane waves:     168
 k-point   4 :   0.2727 0.0000 0.0000  plane waves:     162
 k-point   5 :   0.3636 0.0000 0.0000  plane waves:     162
 k-point   6 :   0.4545 0.0000 0.0000  plane waves:     168
 k-point   7 :   0.0909 0.0909-0.0000  plane waves:     169
 k-point   8 :   0.1818 0.0909 0.0000  plane waves:     167
 k-point   9 :   0.2727 0.0909 0.0000  plane waves:     165
 k-point  10 :   0.3636 0.0909 0.0000  plane waves:     164
 k-point  11 :   0.4545 0.0909 0.0000  plane waves:     169
 k-point  12 :  -0.4545 0.0909-0.0000  plane waves:     166
 k-point  13 :  -0.3636 0.0909-0.0000  plane waves:     167
 k-point  14 :  -0.2727 0.0909-0.0000  plane waves:     163
 k-point  15 :  -0.1818 0.0909-0.0000  plane waves:     164
 k-point  16 :  -0.0909 0.0909-0.0000  plane waves:     170
 k-point  17 :   0.1818 0.1818 0.0000  plane waves:     169
 k-point  18 :   0.2727 0.1818 0.0000  plane waves:     166
 k-point  19 :   0.3636 0.1818 0.0000  plane waves:     166
 k-point  20 :   0.4545 0.1818 0.0000  plane waves:     163
 k-point  21 :  -0.4545 0.1818 0.0000  plane waves:     168
 k-point  22 :  -0.3636 0.1818-0.0000  plane waves:     168
 k-point  23 :  -0.2727 0.1818-0.0000  plane waves:     164
 k-point  24 :  -0.1818 0.1818-0.0000  plane waves:     168
 k-point  25 :   0.2727 0.2727 0.0000  plane waves:     165
 k-point  26 :   0.3636 0.2727 0.0000  plane waves:     167
 k-point  27 :   0.4545 0.2727 0.0000  plane waves:     167
 k-point  28 :  -0.4545 0.2727 0.0000  plane waves:     174
 k-point  29 :  -0.3636 0.2727-0.0000  plane waves:     172
 k-point  30 :  -0.2727 0.2727-0.0000  plane waves:     168
 k-point  31 :   0.3636 0.3636 0.0000  plane waves:     170
 k-point  32 :   0.4545 0.3636 0.0000  plane waves:     168
 k-point  33 :  -0.4545 0.3636-0.0000  plane waves:     174
 k-point  34 :  -0.3636 0.3636-0.0000  plane waves:     172
 k-point  35 :   0.4545 0.4545 0.0000  plane waves:     162
 k-point  36 :  -0.4545 0.4545-0.0000  plane waves:     178
 k-point  37 :   0.2727 0.1818 0.0909  plane waves:     164
 k-point  38 :   0.3636 0.1818 0.0909  plane waves:     166
 k-point  39 :   0.4545 0.1818 0.0909  plane waves:     162
 k-point  40 :  -0.4545 0.1818 0.0909  plane waves:     167
 k-point  41 :   0.3636 0.2727 0.0909  plane waves:     165
 k-point  42 :   0.4545 0.2727 0.0909  plane waves:     168
 k-point  43 :  -0.4545 0.2727 0.0909  plane waves:     167
 k-point  44 :  -0.3636 0.2727 0.0909  plane waves:     170
 k-point  45 :  -0.2727 0.2727 0.0909  plane waves:     168
 k-point  46 :  -0.1818 0.2727 0.0909  plane waves:     166
 k-point  47 :   0.4545 0.3636 0.0909  plane waves:     172
 k-point  48 :  -0.4545 0.3636 0.0909  plane waves:     169
 k-point  49 :  -0.3636 0.3636 0.0909  plane waves:     173
 k-point  50 :  -0.2727 0.3636 0.0909  plane waves:     169
 k-point  51 :  -0.4545 0.4545 0.0909  plane waves:     171
 k-point  52 :  -0.3636 0.4545 0.0909  plane waves:     172
 k-point  53 :  -0.4545 0.3636 0.1818  plane waves:     167
 k-point  54 :  -0.3636 0.3636 0.1818  plane waves:     169
 k-point  55 :  -0.3636 0.4545 0.1818  plane waves:     166
 k-point  56 :  -0.2727 0.4545 0.1818  plane waves:     169

 maximum and minimum number of plane-waves per node :       178      162

 maximum number of plane-waves:       178
 maximum index in each direction: 
   IXMAX=    4   IYMAX=    3   IZMAX=    3
   IXMIN=   -4   IYMIN=   -4   IZMIN=   -3


 serial   3D FFT for wavefunctions
 parallel 3D FFT for charge:
    minimum data exchange during FFTs selected (reduces bandwidth)


 total amount of memory used by VASP MPI-rank0    32917. kBytes
=======================================================================

   base      :      30000. kBytes
   nonl-proj :        640. kBytes
   fftplans  :        504. kBytes
   grid      :        771. kBytes
   one-center:          3. kBytes
   wavefun   :        999. kBytes
 
     INWAV:  cpu time      0.0000: real time      0.0000
 Broyden mixing: mesh for mixing (old mesh)
   NGX =  7   NGY =  7   NGZ =  7
  (NGX  = 24   NGY  = 24   NGZ  = 24)
  gives a total of    343 points

 initial charge density was supplied:
 charge density of overlapping atoms calculated
 number of electron       4.0000000 magnetization 
 keeping initial charge density in first step


--------------------------------------------------------------------------------------------------------


 Maximum index for augmentation-charges         2779 (set IRDMAX)


--------------------------------------------------------------------------------------------------------


 First call to EWALD:  gamma=   0.654
 Maximum number of real-space cells 3x 3x 3
 Maximum number of reciprocal cells 3x 3x 3

    FEWALD:  cpu time      0.0013: real time      0.0013


--------------------------------------- Iteration      1(   1)  ---------------------------------------


    POTLOK:  cpu time      0.0046: real time      0.0048
    SETDIJ:  cpu time      0.0011: real time      0.0011
     EDDAV:  cpu time      0.0444: real time      0.0445
       DOS:  cpu time      0.0009: real time      0.0009
    --------------------------------------------
      LOOP:  cpu time      0.0510: real time      0.0513

 eigenvalue-minimisations  :   732
 total energy-change (2. order) :-0.2784432E+01  (-0.1032622E+03)
 number of electron       4.0000000 magnetization 
 augmentation part        4.0000000 magnetization 

 Free energy of the ion-electron system (eV)
  ---------------------------------------------------
  alpha Z        PSCENC =         1.69359067
  Ewald energy   TEWEN  =      -122.82983823
  -Hartree energ DENC   =        -1.63218434
  -exchange      EXHF   =         0.00000000
  -V(xc)+E(xc)   XCENC  =        -9.56225172
  PAW double counting   =        32.97760406      -15.38426339
  entropy T*S    EENTRO =        -0.00226891
  eigenvalues    EBANDS =         8.89440309
  atomic energy  EATOM  =       103.06077658
  Solvation  Ediel_sol  =         0.00000000
  ---------------------------------------------------
  free energy    TOTEN  =        -2.78443219 eV

  energy without entropy =       -2.78216328  energy(sigma->0) =       -2.78329774


--------------------------------------------------------------------------------------------------------




--------------------------------------- Iteration      1(   2)  ---------------------------------------


     EDDAV:  cpu time      0.0565: real time      0.0568
       DOS:  cpu time      0.0010: real time      0.0010
    --------------------------------------------
      LOOP:  cpu time      0.0575: real time      0.0578

 eigenvalue-minimisations  :   966
 total energy-change (2. order) :-0.1793728E+01  (-0.1660627E+01)
 number of electron       4.0000000 magnetization 
 augmentation part        4.0000000 magnetization 

 Free energy of the ion-electron system (eV)
  ---------------------------------------------------
  alpha Z        PSCENC =         1.69359067
  Ewald energy   TEWEN  =      -122.82983823
  -Hartree energ DENC   =        -1.63218434
  -exchange      EXHF   =         0.00000000
  -V(xc)+E(xc)   XCENC  =        -9.56225172
  PAW double counting   =        32.97760406      -15.38426339
  entropy T*S    EENTRO =        -0.00332379
  eigenvalues    EBANDS =         7.10173004
  atomic energy  EATOM  =       103.06077658
  Solvation  Ediel_sol  =         0.00000000
  ---------------------------------------------------
  free energy    TOTEN  =        -4.57816012 eV

  energy without entropy =       -4.57483634  energy(sigma->0) =       -4.57649823


--------------------------------------------------------------------------------------------------------




--------------------------------------- Iteration      1(   3)  ---------------------------------------


     EDDAV:  cpu time      0.0446: real time      0.0449
       DOS:  cpu time      0.0008: real time      0.0008
    --------------------------------------------
      LOOP:  cpu time      0.0454: real time      0.0457

 eigenvalue-minimisations  :   816
 total energy-change (2. order) :-0.1884780E-01  (-0.1860547E-01)
 number of electron       4.0000000 magnetization 
 augmentation part        4.0000000 magnetization 

 Free energy of the ion-electron system (eV)
  ---------------------------------------------------
  alpha Z        PSCENC =         1.69359067
  Ewald energy   TEWEN  =      -122.82983823
  -Hartree energ DENC   =        -1.63218434
  -exchange      EXHF   =         0.00000000
  -V(xc)+E(xc)   XCENC  =        -9.56225172
  PAW double counting   =        32.97760406      -15.38426339
  entropy T*S    EENTRO =        -0.00382366
  eigenvalues    EBANDS =         7.08338211
  atomic energy  EATOM  =       103.06077658
  Solvation  Ediel_sol  =         0.00000000
  ---------------------------------------------------
  free energy    TOTEN  =        -4.59700792 eV

  energy without entropy =       -4.59318426  energy(sigma->0) =       -4.59509609


--------------------------------------------------------------------------------------------------------




--------------------------------------- Iteration      1(   4)  ---------------------------------------


     EDDAV:  cpu time      0.0453: real time      0.0455
       DOS:  cpu time      0.0008: real time      0.0008
    --------------------------------------------
      LOOP:  cpu time      0.0461: real time      0.0463

 eigenvalue-minimisations  :   990
 total energy-change (2. order) :-0.2456907E-04  (-0.2456809E-04)
 number of electron       4.0000000 magnetization 
 augmentation part        4.0000000 magnetization 

 Free energy of the ion-electron system (eV)
  ---------------------------------------------------
  alpha Z        PSCENC =         1.69359067
  Ewald energy   TEWEN  =      -122.82983823
  -Hartree energ DENC   =        -1.63218434
  -exchange      EXHF   =         0.00000000
  -V(xc)+E(xc)   XCENC  =        -9.56225172
  PAW double counting   =        32.97760406      -15.38426339
  entropy T*S    EENTRO =        -0.00382414
  eigenvalues    EBANDS =         7.08335802
  atomic energy  EATOM  =       103.06077658
  Solvation  Ediel_sol  =         0.00000000
  ---------------------------------------------------
  free energy    TOTEN  =        -4.59703249 eV

  energy without entropy =       -4.59320835  energy(sigma->0) =       -4.59512042


--------------------------------------------------------------------------------------------------------




--------------------------------------- Iteration      1(   5)  ---------------------------------------


     EDDAV:  cpu time      0.0367: real time      0.0369
       DOS:  cpu time      0.0008: real time      0.0008
    CHARGE:  cpu time      0.0019: real time      0.0019
    MIXING:  cpu time      0.0004: real time      0.0004
    --------------------------------------------
      LOOP:  cpu time      0.0399: real time      0.0401

 eigenvalue-minimisations  :   786
 total energy-change (2. order) :-0.3802791E-07  (-0.3792332E-07)
 number of electron       4.0000003 magnetization 
 augmentation part       -0.2524230 magnetization 

 Broyden mixing:
  rms(total) = 0.64354E-01    rms(broyden)= 0.64333E-01
  rms(prec ) = 0.25638E+00
  weight for this iteration     100.00

 Free energy of the ion-electron system (eV)
  ---------------------------------------------------
  alpha Z        PSCENC =         1.69359067
  Ewald energy   TEWEN  =      -122.82983823
  -Hartree energ DENC   =        -1.63218434
  -exchange      EXHF   =         0.00000000
  -V(xc)+E(xc)   XCENC  =        -9.56225172
  PAW double counting   =        32.97760406      -15.38426339
  entropy T*S    EENTRO =        -0.00382414
  eigenvalues    EBANDS =         7.08335799
  atomic energy  EATOM  =       103.06077658
  Solvation  Ediel_sol  =         0.00000000
  ---------------------------------------------------
  free energy    TOTEN  =        -4.59703253 eV

  energy without entropy =       -4.59320839  energy(sigma->0) =       -4.59512046


--------------------------------------------------------------------------------------------------------




--------------------------------------- Iteration      1(   6)  ---------------------------------------


    POTLOK:  cpu time      0.0037: real time      0.0038
    SETDIJ:  cpu time      0.0008: real time      0.0008
     EDDAV:  cpu time      0.0358: real time      0.0359
       DOS:  cpu time      0.0008: real time      0.0008
    CHARGE:  cpu time      0.0017: real time      0.0017
    MIXING:  cpu time      0.0004: real time      0.0004
    --------------------------------------------
      LOOP:  cpu time      0.0431: real time      0.0433

 eigenvalue-minimisations  :   768
 total energy-change (2. order) : 0.9256717E-02  (-0.4803846E-03)
 number of electron       4.0000003 magnetization 
 augmentation part       -0.2549103 magnetization 

 Broyden mixing:
  rms(total) = 0.37951E-01    rms(broyden)= 0.37950E-01
  rms(prec ) = 0.15100E+00
  weight for this iteration     100.00

 eigenvalues of (default mixing * dielectric matrix)
  average eigenvalue GAMMA=   2.4213
  2.4213

 Free energy of the ion-electron system (eV)
  ---------------------------------------------------
  alpha Z        PSCENC =         1.69359067
  Ewald energy   TEWEN  =      -122.82983823
  -Hartree energ DENC   =        -1.47687125
  -exchange      EXHF   =         0.00000000
  -V(xc)+E(xc)   XCENC  =        -9.56954100
  PAW double counting   =        32.76528917      -15.15594375
  entropy T*S    EENTRO =        -0.00383923
  eigenvalues    EBANDS =         6.92860122
  atomic energy  EATOM  =       103.06077658
  Solvation  Ediel_sol  =         0.00000000
  ---------------------------------------------------
  free energy    TOTEN  =        -4.58777581 eV

  energy without entropy =       -4.58393658  energy(sigma->0) =       -4.58585620


--------------------------------------------------------------------------------------------------------




--------------------------------------- Iteration      1(   7)  ---------------------------------------


    POTLOK:  cpu time      0.0036: real time      0.0037
    SETDIJ:  cpu time      0.0008: real time      0.0008
     EDDAV:  cpu time      0.0321: real time      0.0322
       DOS:  cpu time      0.0008: real time      0.0008
    CHARGE:  cpu time      0.0016: real time      0.0016
    MIXING:  cpu time      0.0002: real time      0.0002
    --------------------------------------------
      LOOP:  cpu time      0.0391: real time      0.0393

 eigenvalue-minimisations  :   720
 total energy-change (2. order) : 0.4657557E-02  (-0.9654999E-03)
 number of electron       4.0000003 magnetization 
 augmentation part       -0.2585070 magnetization 

 Broyden mixing:
  rms(total) = 0.27749E-02    rms(broyden)= 0.27626E-02
  rms(prec ) = 0.84580E-02
  weight for this iteration     100.00

 eigenvalues of (default mixing * dielectric matrix)
  average eigenvalue GAMMA=   2.4641
  2.3859  2.5424

 Free energy of the ion-electron system (eV)
  ---------------------------------------------------
  alpha Z        PSCENC =         1.69359067
  Ewald energy   TEWEN  =      -122.82983823
  -Hartree energ DENC   =        -1.27962240
  -exchange      EXHF   =         0.00000000
  -V(xc)+E(xc)   XCENC  =        -9.57784852
  PAW double counting   =        32.55375838      -14.92651491
  entropy T*S    EENTRO =        -0.00386896
  eigenvalues    EBANDS =         6.72644913
  atomic energy  EATOM  =       103.06077658
  Solvation  Ediel_sol  =         0.00000000
  ---------------------------------------------------
  free energy    TOTEN  =        -4.58311826 eV

  energy without entropy =       -4.57924930  energy(sigma->0) =       -4.58118378


--------------------------------------------------------------------------------------------------------




--------------------------------------- Iteration      1(   8)  ---------------------------------------


    POTLOK:  cpu time      0.0035: real time      0.0036
    SETDIJ:  cpu time      0.0007: real time      0.0007
     EDDAV:  cpu time      0.0338: real time      0.0339
       DOS:  cpu time      0.0008: real time      0.0008
    --------------------------------------------
      LOOP:  cpu time      0.0389: real time      0.0391

 eigenvalue-minimisations  :   714
 total energy-change (2. order) : 0.1591579E-05  (-0.6122761E-05)
 number of electron       4.0000003 magnetization 
 augmentation part       -0.2585070 magnetization 

 Free energy of the ion-electron system (eV)
  ---------------------------------------------------
  alpha Z        PSCENC =         1.69359067
  Ewald energy   TEWEN  =      -122.82983823
  -Hartree energ DENC   =        -1.28509349
  -exchange      EXHF   =         0.00000000
  -V(xc)+E(xc)   XCENC  =        -9.57698352
  PAW double counting   =        32.68147335      -15.06100168
  entropy T*S    EENTRO =        -0.00386598
  eigenvalues    EBANDS =         6.73782562
  atomic energy  EATOM  =       103.06077658
  Solvation  Ediel_sol  =         0.00000000
  ---------------------------------------------------
  free energy    TOTEN  =        -4.58311666 eV

  energy without entropy =       -4.57925068  energy(sigma->0) =       -4.58118367


--------------------------------------------------------------------------------------------------------




 average (electrostatic) potential at core
  the test charge radii are     0.9892
  (the norm of the test charge is              1.0000)
       1 -83.7495
 
 
 
 E-fermi :   6.3823     XC(G=0):  -9.9470     alpha+bet :-12.0666

 Fermi energy:         6.3822591896

 k-point     1 :       0.0000    0.0000    0.0000
  band No.  band energies     occupation 
      1      -5.3695      2.00000
      2      14.2509      0.00000
      3      14.2509      0.00000
      4      14.2509      0.00000
      5      17.3365      0.00000
      6      17.3366      0.00000

 k-point     2 :       0.0909    0.0000    0.0000
  band No.  band energies     occupation 
      1      -5.1780      2.00000
      2      12.5690      0.00000
      3      13.9244      0.00000
      4      13.9244      0.00000
      5      17.4940      0.00000
      6      17.8553      0.00000

 k-point     3 :       0.1818    0.0000    0.0000
  band No.  band energies     occupation 
      1      -4.6057      2.00000
      2       9.6637      0.00000
      3      13.3557      0.00000
      4      13.3558      0.00000
      5      17.3067      0.00000
      6      18.5126      0.00000

 k-point     4 :       0.2727    0.0000    0.0000
  band No.  band energies     occupation 
      1      -3.6604      2.00000
      2       6.7479      0.00000
      3      12.9003      0.00000
      4      12.9003      0.00000
      5      17.0317      0.00000
      6      17.9376      0.00000

 k-point     5 :       0.3636    0.0000    0.0000
  band No.  band energies     occupation 
      1      -2.3657      2.00000
      2       4.0821      2.00000
      3      12.6285      0.00000
      4      12.6286      0.00000
      5      16.8621      0.00000
      6      17.0851      0.00000

 k-point     6 :       0.4545    0.0000    0.0000
  band No.  band energies     occupation 
      1      -0.8609      2.00000
      2       1.8823      2.00000
      3      12.5138      0.00000
      4      12.5139      0.00000
      5      16.5740      0.00000
      6      16.5743      0.00000

 k-point     7 :       0.0909    0.0909   -0.0000
  band No.  band energies     occupation 
      1      -5.1142      2.00000
      2      13.1417      0.00000
      3      13.1418      0.00000
      4      13.5504      0.00000
      5      16.1779      0.00000
      6      18.7508      0.00000

 k-point     8 :       0.1818    0.0909    0.0000
  band No.  band energies     occupation 
      1      -4.6686      2.00000
      2      10.7519      0.00000
      3      12.4044      0.00000
      4      13.2946      0.00000
      5      16.1950      0.00000
      6      18.8501      0.00000

 k-point     9 :       0.2727    0.0909    0.0000
  band No.  band energies     occupation 
      1      -3.8471      2.00000
      2       7.8375      0.00000
      3      11.9020      0.00000
      4      12.6814      0.00000
      5      16.2674      0.00000
      6      18.2950      0.00000

 k-point    10 :       0.3636    0.0909    0.0000
  band No.  band energies     occupation 
      1      -2.6654      2.00000
      2       5.0857      2.00000
      3      11.6825      0.00000
      4      12.0405      0.00000
      5      15.7134      0.00000
      6      18.2196      0.00000

 k-point    11 :       0.4545    0.0909    0.0000
  band No.  band energies     occupation 
      1      -1.1906      2.00000
      2       2.6916      2.00000
      3      11.4565      0.00000
      4      11.7461      0.00000
      5      15.4784      0.00000
      6      17.7709      0.00000

 k-point    12 :      -0.4545    0.0909   -0.0000
  band No.  band energies     occupation 
      1      -0.3275      2.00000
      2       1.5975      2.00000
      3      11.0044      0.00000
      4      12.0685      0.00000
      5      15.7357      0.00000
      6      17.2595      0.00000

 k-point    13 :      -0.3636    0.0909   -0.0000
  band No.  band energies     occupation 
      1      -1.7036      2.00000
      2       3.4365      2.00000
      3      10.7692      0.00000
      4      12.5902      0.00000
      5      16.4321      0.00000
      6      17.1641      0.00000

 k-point    14 :      -0.2727    0.0909   -0.0000
  band No.  band energies     occupation 
      1      -3.0979      2.00000
      2       5.9765      2.00000
      3      10.8063      0.00000
      4      13.2249      0.00000
      5      17.4531      0.00000
      6      17.5428      0.00000

 k-point    15 :      -0.1818    0.0909   -0.0000
  band No.  band energies     occupation 
      1      -4.1623      2.00000
      2       8.8087      0.00000
      3      11.1418      0.00000
      4      13.8548      0.00000
      5      17.9332      0.00000
      6      18.1546      0.00000

 k-point    16 :      -0.0909    0.0909   -0.0000
  band No.  band energies     occupation 
      1      -4.8596      2.00000
      2      11.5826      0.00000
      3      11.9088      0.00000
      4      14.2356      0.00000
      5      17.7139      0.00000
      6      17.8350      0.00000

 k-point    17 :       0.1818    0.1818    0.0000
  band No.  band energies     occupation 
      1      -4.3506      2.00000
      2      11.5458      0.00000
      3      11.5458      0.00000
      4      11.8422      0.00000
      5      14.4045      0.00000
      6      16.9387      0.00000

 k-point    18 :       0.2727    0.1818    0.0000
  band No.  band energies     occupation 
      1      -3.6552      2.00000
      2       9.1285      0.00000
      3      10.9468      0.00000
      4      11.3171      0.00000
      5      14.4440      0.00000
      6      16.0851      0.00000

 k-point    19 :       0.3636    0.1818    0.0000
  band No.  band energies     occupation 
      1      -2.5937      2.00000
      2       6.3932      0.87726
      3      10.3348      0.00000
      4      10.6519      0.00000
      5      14.1466      0.00000
      6      17.4213      0.00000

 k-point    20 :       0.4545    0.1818    0.0000
  band No.  band energies     occupation 
      1      -1.2040      2.00000
      2       3.8940      2.00000
      3       9.3939      0.00000
      4      10.6753      0.00000
      5      13.9959      0.00000
      6      19.2183      0.00000

 k-point    21 :      -0.4545    0.1818    0.0000
  band No.  band energies     occupation 
      1       0.1635      2.00000
      2       2.0754      2.00000
      3       8.6601      0.00000
      4      11.0074      0.00000
      5      14.2833      0.00000
      6      19.2106      0.00000

 k-point    22 :      -0.3636    0.1818   -0.0000
  band No.  band energies     occupation 
      1      -0.7006      2.00000
      2       3.1731      2.00000
      3       8.2110      0.00000
      4      11.6266      0.00000
      5      14.9859      0.00000
      6      18.8201      0.00000

 k-point    23 :      -0.2727    0.1818   -0.0000
  band No.  band energies     occupation 
      1      -2.1680      2.00000
      2       5.5516      2.00000
      3       8.0847      0.00000
      4      12.4690      0.00000
      5      16.0555      0.00000
      6      18.8007      0.00000

 k-point    24 :      -0.1818    0.1818   -0.0000
  band No.  band energies     occupation 
      1      -3.3446      2.00000
      2       8.1432      0.00000
      3       8.4203      0.00000
      4      13.3715      0.00000
      5      17.3892      0.00000
      6      19.0459      0.00000

 k-point    25 :       0.2727    0.2727    0.0000
  band No.  band energies     occupation 
      1      -3.0867      2.00000
      2       9.4043      0.00000
      3      10.2442      0.00000
      4      10.2443      0.00000
      5      12.9418      0.00000
      6      14.2502      0.00000

 k-point    26 :       0.3636    0.2727    0.0000
  band No.  band energies     occupation 
      1      -2.1496      2.00000
      2       7.5538      0.00000
      3       8.9054      0.00000
      4       9.8493      0.00000
      5      12.9415      0.00000
      6      14.4545      0.00000

 k-point    27 :       0.4545    0.2727    0.0000
  band No.  band energies     occupation 
      1      -0.8687      2.00000
      2       5.2987      2.00000
      3       7.4701      0.00000
      4       9.7804      0.00000
      5      12.8388      0.00000
      6      16.5679      0.00000

 k-point    28 :      -0.4545    0.2727    0.0000
  band No.  band energies     occupation 
      1       0.6110      2.00000
      2       3.2511      2.00000
      3       6.4436      0.38601
      4      10.0369      0.00000
      5      13.0797      0.00000
      6      19.0822      0.00000

 k-point    29 :      -0.3636    0.2727   -0.0000
  band No.  band energies     occupation 
      1       0.5765      2.00000
      2       3.3261      2.00000
      3       5.7870      2.00000
      4      10.6079      0.00000
      5      13.7188      0.00000
      6      21.0781      0.00000

 k-point    30 :      -0.2727    0.2727   -0.0000
  band No.  band energies     occupation 
      1      -0.8973      2.00000
      2       5.4130      2.00000
      3       5.5711      2.00000
      4      11.4568      0.00000
      5      14.7329      0.00000
      6      20.4692      0.00000

 k-point    31 :       0.3636    0.3636    0.0000
  band No.  band energies     occupation 
      1      -1.3387      2.00000
      2       6.4717      0.20590
      3       9.3505      0.00000
      4       9.3505      0.00000
      5      11.9350      0.00000
      6      12.7116      0.00000

 k-point    32 :       0.4545    0.3636    0.0000
  band No.  band energies     occupation 
      1      -0.1793      2.00000
      2       5.0350      2.00000
      3       7.6927      0.00000
      4       9.1779      0.00000
      5      12.0547      0.00000
      6      13.6248      0.00000

 k-point    33 :      -0.4545    0.3636   -0.0000
  band No.  band energies     occupation 
      1       1.2418      2.00000
      2       3.8175      2.00000
      3       5.5996      2.00000
      4       9.3365      0.00000
      5      12.2385      0.00000
      6      16.1202      0.00000

 k-point    34 :      -0.3636    0.3636   -0.0000
  band No.  band energies     occupation 
      1       1.8141      2.00000
      2       3.6258      2.00000
      3       4.2352      2.00000
      4       9.8209      0.00000
      5      12.7924      0.00000
      6      18.9568      0.00000

 k-point    35 :       0.4545    0.4545    0.0000
  band No.  band energies     occupation 
      1       0.8463      2.00000
      2       3.5743      2.00000
      3       8.8987      0.00000
      4       8.8988      0.00000
      5      11.4297      0.00000
      6      12.0388      0.00000

 k-point    36 :      -0.4545    0.4545   -0.0000
  band No.  band energies     occupation 
      1       1.8856      2.00000
      2       2.6450      2.00000
      3       7.3936      0.00000
      4       8.9519      0.00000
      5      11.7629      0.00000
      6      13.3566      0.00000

 k-point    37 :       0.2727    0.1818    0.0909
  band No.  band energies     occupation 
      1      -4.0981      2.00000
      2       9.8617      0.00000
      3      10.2020      0.00000
      4      13.1228      0.00000
      5      16.1725      0.00000
      6      17.6080      0.00000

 k-point    38 :       0.3636    0.1818    0.0909
  band No.  band energies     occupation 
      1      -3.1563      2.00000
      2       7.1771      0.00000
      3       9.6013      0.00000
      4      12.3470      0.00000
      5      16.2269      0.00000
      6      17.8654      0.00000

 k-point    39 :       0.4545    0.1818    0.0909
  band No.  band energies     occupation 
      1      -1.8662      2.00000
      2       4.5479      2.00000
      3       9.4440      0.00000
      4      11.4581      0.00000
      5      15.9153      0.00000
      6      17.7419      0.00000

 k-point    40 :      -0.4545    0.1818    0.0909
  band No.  band energies     occupation 
      1      -0.3675      2.00000
      2       2.3624      2.00000
      3       9.4924      0.00000
      4      10.8393      0.00000
      5      15.8596      0.00000
      6      17.1746      0.00000

 k-point    41 :       0.3636    0.2727    0.0909
  band No.  band energies     occupation 
      1      -2.8391      2.00000
      2       8.3088      0.00000
      3       8.8265      0.00000
      4      10.6893      0.00000
      5      14.8096      0.00000
      6      15.4250      0.00000

 k-point    42 :       0.4545    0.2727    0.0909
  band No.  band energies     occupation 
      1      -1.6659      2.00000
      2       5.9300      2.00000
      3       8.2059      0.00000
      4       9.6859      0.00000
      5      14.8315      0.00000
      6      17.0131      0.00000

 k-point    43 :      -0.4545    0.2727    0.0909
  band No.  band energies     occupation 
      1      -0.2043      2.00000
      2       3.6133      2.00000
      3       7.7380      0.00000
      4       9.2546      0.00000
      5      14.9233      0.00000
      6      18.7265      0.00000

 k-point    44 :      -0.3636    0.2727    0.0909
  band No.  band energies     occupation 
      1       0.6396      2.00000
      2       2.5564      2.00000
      3       7.2095      0.00000
      4       9.5379      0.00000
      5      15.3511      0.00000
      6      18.5586      0.00000

 k-point    45 :      -0.2727    0.2727    0.0909
  band No.  band energies     occupation 
      1      -0.7216      2.00000
      2       4.3737      2.00000
      3       6.8882      0.00000
      4      10.2761      0.00000
      5      16.0629      0.00000
      6      18.3241      0.00000

 k-point    46 :      -0.1818    0.2727    0.0909
  band No.  band energies     occupation 
      1      -2.1013      2.00000
      2       6.7296      0.00000
      3       7.0057      0.00000
      4      11.3105      0.00000
      5      16.8511      0.00000
      6      17.9515      0.00000

 k-point    47 :       0.4545    0.3636    0.0909
  band No.  band energies     occupation 
      1      -1.1005      2.00000
      2       6.3814      1.01015
      3       7.8866      0.00000
      4       8.5576      0.00000
      5      13.8596      0.00000
      6      14.2097      0.00000

 k-point    48 :      -0.4545    0.3636    0.0909
  band No.  band energies     occupation 
      1       0.2668      2.00000
      2       4.8210      2.00000
      3       6.2845      1.83332
      4       8.2127      0.00000
      5      14.0574      0.00000
      6      16.3867      0.00000

 k-point    49 :      -0.3636    0.3636    0.0909
  band No.  band energies     occupation 
      1       1.5643      2.00000
      2       3.3938      2.00000
      3       5.1778      2.00000
      4       8.5317      0.00000
      5      14.4352      0.00000
      6      18.9978      0.00000

 k-point    50 :      -0.2727    0.3636    0.0909
  band No.  band energies     occupation 
      1       0.6929      2.00000
      2       4.5556      2.00000
      3       4.6009      2.00000
      4       9.2430      0.00000
      5      15.1462      0.00000
      6      20.4070      0.00000

 k-point    51 :      -0.4545    0.4545    0.0909
  band No.  band energies     occupation 
      1       1.0590      2.00000
      2       3.7561      2.00000
      3       7.4124      0.00000
      4       7.7641      0.00000
      5      13.3800      0.00000
      6      13.6551      0.00000

 k-point    52 :      -0.3636    0.4545    0.0909
  band No.  band energies     occupation 
      1       2.1481      2.00000
      2       3.1359      2.00000
      3       5.5248      2.00000
      4       7.8895      0.00000
      5      13.8025      0.00000
      6      16.1662      0.00000

 k-point    53 :      -0.4545    0.3636    0.1818
  band No.  band energies     occupation 
      1      -0.3994      2.00000
      2       5.5946      2.00000
      3       6.0451      2.00000
      4       8.4008      0.00000
      5      16.6839      0.00000
      6      17.0744      0.00000

 k-point    54 :      -0.3636    0.3636    0.1818
  band No.  band energies     occupation 
      1       1.0603      2.00000
      2       3.7362      2.00000
      3       5.9056      2.00000
      4       7.5979      0.00000
      5      16.8075      0.00000
      6      18.3706      0.00000

 k-point    55 :      -0.3636    0.4545    0.1818
  band No.  band energies     occupation 
      1       1.6405      2.00000
      2       4.1673      2.00000
      3       5.5621      2.00000
      4       6.5019      0.09053
      5      16.4162      0.00000
      6      16.6239      0.00000

 k-point    56 :      -0.2727    0.4545    0.1818
  band No.  band energies     occupation 
      1       2.2286      2.00000
      2       4.1124      2.00000
      3       4.4646      2.00000
      4       6.6100      0.00128
      5      16.8662      0.00000
      6      19.0391      0.00000


--------------------------------------------------------------------------------------------------------


 soft charge-density along one line, spin component           1
         0         1         2         3         4         5         6         7         8         9
 total charge-density along one line
 
 pseudopotential strength for first ion, spin component:           1
 18.404   0.000  -0.000  -0.000   0.000   0.000   0.000  -0.000
  0.000   0.006   0.000   0.000  -0.000  -0.000  -0.000   0.000
 -0.000   0.000   4.157  -0.000  -0.000  -0.004   0.000   0.000
 -0.000   0.000  -0.000   4.157  -0.000   0.000  -0.004   0.000
  0.000  -0.000  -0.000  -0.000   4.157   0.000   0.000  -0.004
  0.000  -0.000  -0.004   0.000   0.000   0.005  -0.000  -0.000
  0.000  -0.000   0.000  -0.004   0.000  -0.000   0.005  -0.000
 -0.000   0.000   0.000   0.000  -0.004  -0.000  -0.000   0.005
 total augmentation occupancy for first ion, spin component:           1
  1.894  -0.011   0.000   0.000   0.000   0.000   0.000   0.000
 -0.011   0.643   0.000   0.000   0.000   0.000   0.000   0.000
  0.000   0.000   0.649   0.000   0.000  -0.321  -0.000   0.000
  0.000   0.000   0.000   0.649  -0.000  -0.000  -0.321   0.000
  0.000   0.000   0.000  -0.000   0.649  -0.000  -0.000  -0.321
  0.000   0.000  -0.321   0.000  -0.000   0.202   0.000  -0.000
  0.000   0.000   0.000  -0.321   0.000   0.000   0.202  -0.000
  0.000   0.000  -0.000   0.000  -0.321  -0.000   0.000   0.202


------------------------ aborting loop because EDIFF is reached ----------------------------------------


    CHARGE:  cpu time      0.0016: real time      0.0016
    FORLOC:  cpu time      0.0002: real time      0.0002
    FORNL :  cpu time      0.0023: real time      0.0023
    STRESS:  cpu time      0.0153: real time      0.0154
    FORCOR:  cpu time      0.0038: real time      0.0038
    FORHAR:  cpu time      0.0007: real time      0.0007
    MIXING:  cpu time      0.0003: real time      0.0003
    OFIELD:  cpu time      0.0000: real time      0.0000

  FORCE on cell =-STRESS in cart. coord.  units (eV):
  Direction    XX          YY          ZZ          XY          YZ          ZX
  --------------------------------------------------------------------------------------
  Alpha Z     1.69359     1.69359     1.69359
  Ewald     -40.94328   -40.94328   -40.94328     0.00000     0.00000     0.00000
  Hartree     0.42820     0.42820     0.42820    -0.00000    -0.00000    -0.00000
  E(xc)     -11.86145   -11.86145   -11.86145    -0.00001    -0.00001    -0.00001
  Local      -8.10371    -8.10371    -8.10371     0.00003     0.00003     0.00003
  n-local    38.69824    38.38848    39.06011     0.35448    -0.05094    -0.27890
  augment    -6.60473    -6.60473    -6.60473    -0.00004    -0.00004    -0.00004
  Kinetic    18.92480    33.27240    22.65324     8.25830    -6.70475   -12.23742
  Fock        0.00000     0.00000     0.00000     0.00000     0.00000     0.00000
  -------------------------------------------------------------------------------------
  Total      -1.72562    -1.72562    -1.72562     0.00000    -0.00000     0.00000
  in kB    -139.09499  -139.09499  -139.09499     0.00000    -0.00000     0.00000
  external pressure =     -139.09 kB  Pullay stress =        0.00 kB


 VOLUME and BASIS-vectors are now :
 -----------------------------------------------------------------------------
  energy-cutoff  :      240.00
  volume of cell :       19.88
      direct lattice vectors                 reciprocal lattice vectors
     2.150000000  2.150000000  0.000000000     0.232558140  0.232558140 -0.232558140
     0.000000000  2.150000000  2.150000000    -0.232558140  0.232558140  0.232558140
     2.150000000  0.000000000  2.150000000     0.232558140 -0.232558140  0.232558140

  length of vectors
     3.040559159  3.040559159  3.040559159     0.402802513  0.402802513  0.402802513


 FORCES acting on ions
    electron-ion (+dipol)            ewald-force                    non-local-force                 convergence-correction
 -----------------------------------------------------------------------------------------------
   0.124E-14 0.853E-15 0.608E-15   -.325E-15 -.786E-16 0.165E-15   -.114E-22 -.850E-22 -.114E-22   -.846E-16 -.618E-16 0.146E-16
 -----------------------------------------------------------------------------------------------
   0.124E-14 0.853E-15 0.608E-15   -.325E-15 -.786E-16 0.165E-15   -.114E-22 -.850E-22 -.114E-22   -.846E-16 -.618E-16 0.146E-16
 
 
 POSITION                                       TOTAL-FORCE (eV/Angst)
 -----------------------------------------------------------------------------------
      0.00000      0.00000      0.00000        -0.000000      0.000000      0.000000
 -----------------------------------------------------------------------------------
    total drift:                                0.000000      0.000000      0.000000


--------------------------------------------------------------------------------------------------------



  FREE ENERGIE OF THE ION-ELECTRON SYSTEM (eV)
  ---------------------------------------------------
  free  energy   TOTEN  =        -4.58311666 eV

  energy  without entropy=       -4.57925068  energy(sigma->0) =       -4.58118367
 


--------------------------------------------------------------------------------------------------------


    POTLOK:  cpu time      0.0045: real time      0.0045


--------------------------------------------------------------------------------------------------------


 writing wavefunctions
     LOOP+:  cpu time      0.4106: real time      0.4294
    4ORBIT:  cpu time      0.0000: real time      0.0000

 total amount of memory used by VASP MPI-rank0    32917. kBytes
=======================================================================

   base      :      30000. kBytes
   nonl-proj :        640. kBytes
   fftplans  :        504. kBytes
   grid      :        771. kBytes
   one-center:          3. kBytes
   wavefun   :        999. kBytes
 
  
  
 General timing and accounting informations for this job:
 ========================================================
  
                  Total CPU time used (sec):        0.573
                            User time (sec):        0.499
                          System time (sec):        0.074
                         Elapsed time (sec):        0.949
  
                   Maximum memory used (kb):       71604.
                   Average memory used (kb):          N/A
  
                          Minor page faults:        18692
                          Major page faults:            0
                 Voluntary context switches:          647
