rm: cannot remove ‘WAVECAR’: No such file or directory
rm: cannot remove ‘SUMMARY.fcc’: No such file or directory
a= 3.5
 ----------------------------------------------------
    OOO  PPPP  EEEEE N   N M   M PPPP
   O   O P   P E     NN  N MM MM P   P
   O   O PPPP  EEEEE N N N M M M PPPP   -- VERSION
   O   O P     E     N  NN M   M P
    OOO  P     EEEEE N   N M   M P
 ----------------------------------------------------
 running    1 mpi-ranks, with    1 threads/rank
 distrk:  each k-point on    1 cores,    1 groups
 distr:  one band on    1 cores,    1 groups
 vasp.6.3.2 27Jun22 (build Oct 19 2022 15:35:57) complex                        
  
 POSCAR found :  1 types and       1 ions
 scaLAPACK will be used
 LDA part: xc-table for Pade appr. of Perdew
 POSCAR, INCAR and KPOINTS ok, starting setup
 FFT: planning ... GRIDC
 FFT: planning ... GRID_SOFT
 FFT: planning ... GRID
 WAVECAR not read
 entering main loop
       N       E                     dE             d eps       ncg     rms          rms(c)
DAV:   1    -0.336257030977E+01   -0.33626E+01   -0.13908E+03   774   0.297E+02
DAV:   2    -0.446219181185E+01   -0.10996E+01   -0.10762E+01   948   0.240E+01
DAV:   3    -0.446615060064E+01   -0.39588E-02   -0.39564E-02   834   0.134E+00
DAV:   4    -0.446615202952E+01   -0.14289E-05   -0.14294E-05   918   0.241E-02
DAV:   5    -0.446615202999E+01   -0.46968E-09   -0.37071E-09   726   0.270E-04    0.108E+00
DAV:   6    -0.444093925702E+01    0.25213E-01   -0.34728E-03   732   0.378E-01    0.649E-01
DAV:   7    -0.442568585144E+01    0.15253E-01   -0.85676E-03   726   0.600E-01    0.286E-02
DAV:   8    -0.442567122823E+01    0.14623E-04   -0.20140E-05   654   0.381E-02
   1 F= -.44256712E+01 E0= -.44233993E+01  d E =-.454386E-02
 writing wavefunctions
a= 3.6
 ----------------------------------------------------
    OOO  PPPP  EEEEE N   N M   M PPPP
   O   O P   P E     NN  N MM MM P   P
   O   O PPPP  EEEEE N N N M M M PPPP   -- VERSION
   O   O P     E     N  NN M   M P
    OOO  P     EEEEE N   N M   M P
 ----------------------------------------------------
 running    1 mpi-ranks, with    1 threads/rank
 distrk:  each k-point on    1 cores,    1 groups
 distr:  one band on    1 cores,    1 groups
 vasp.6.3.2 27Jun22 (build Oct 19 2022 15:35:57) complex                        
  
 POSCAR found :  1 types and       1 ions
 scaLAPACK will be used
 LDA part: xc-table for Pade appr. of Perdew
 POSCAR, INCAR and KPOINTS ok, starting setup
 FFT: planning ... GRIDC
 FFT: planning ... GRID_SOFT
 FFT: planning ... GRID
 WAVECAR not read
 entering main loop
       N       E                     dE             d eps       ncg     rms          rms(c)
DAV:   1    -0.288288175204E+01   -0.28829E+01   -0.12561E+03   762   0.279E+02
DAV:   2    -0.467742251617E+01   -0.17945E+01   -0.14530E+01   978   0.270E+01
DAV:   3    -0.469344452882E+01   -0.16022E-01   -0.16022E-01   816   0.219E+00
DAV:   4    -0.469347700305E+01   -0.32474E-04   -0.32472E-04   942   0.685E-02
DAV:   5    -0.469347701721E+01   -0.14163E-07   -0.15508E-07   714   0.129E-03    0.963E-01
DAV:   6    -0.467356528683E+01    0.19912E-01   -0.33959E-03   714   0.362E-01    0.582E-01
DAV:   7    -0.466148033235E+01    0.12085E-01   -0.84118E-03   726   0.574E-01    0.237E-02
DAV:   8    -0.466146996746E+01    0.10365E-04   -0.17229E-05   648   0.373E-02
   1 F= -.46614700E+01 E0= -.46600410E+01  d E =-.285790E-02
 writing wavefunctions
a= 3.7
 ----------------------------------------------------
    OOO  PPPP  EEEEE N   N M   M PPPP
   O   O P   P E     NN  N MM MM P   P
   O   O PPPP  EEEEE N N N M M M PPPP   -- VERSION
   O   O P     E     N  NN M   M P
    OOO  P     EEEEE N   N M   M P
 ----------------------------------------------------
 running    1 mpi-ranks, with    1 threads/rank
 distrk:  each k-point on    1 cores,    1 groups
 distr:  one band on    1 cores,    1 groups
 vasp.6.3.2 27Jun22 (build Oct 19 2022 15:35:57) complex                        
  
 POSCAR found :  1 types and       1 ions
 scaLAPACK will be used
 LDA part: xc-table for Pade appr. of Perdew
 POSCAR, INCAR and KPOINTS ok, starting setup
 FFT: planning ... GRIDC
 FFT: planning ... GRID_SOFT
 FFT: planning ... GRID
 WAVECAR not read
 entering main loop
       N       E                     dE             d eps       ncg     rms          rms(c)
DAV:   1    -0.360477051177E+01   -0.36048E+01   -0.13486E+03   762   0.290E+02
DAV:   2    -0.481807656986E+01   -0.12133E+01   -0.11748E+01   984   0.243E+01
DAV:   3    -0.482506354258E+01   -0.69870E-02   -0.69841E-02   768   0.171E+00
DAV:   4    -0.482506828660E+01   -0.47440E-05   -0.47430E-05   954   0.428E-02
DAV:   5    -0.482506828860E+01   -0.19987E-08   -0.18660E-08   660   0.538E-04    0.887E-01
DAV:   6    -0.480808221664E+01    0.16986E-01   -0.37563E-03   720   0.367E-01    0.533E-01
DAV:   7    -0.479800128388E+01    0.10081E-01   -0.88035E-03   702   0.563E-01    0.242E-02
DAV:   8    -0.479798640955E+01    0.14874E-04   -0.22166E-05   642   0.423E-02
   1 F= -.47979864E+01 E0= -.47959298E+01  d E =-.411323E-02
 writing wavefunctions
a= 3.8
 ----------------------------------------------------
    OOO  PPPP  EEEEE N   N M   M PPPP
   O   O P   P E     NN  N MM MM P   P
   O   O PPPP  EEEEE N N N M M M PPPP   -- VERSION
   O   O P     E     N  NN M   M P
    OOO  P     EEEEE N   N M   M P
 ----------------------------------------------------
 running    1 mpi-ranks, with    1 threads/rank
 distrk:  each k-point on    1 cores,    1 groups
 distr:  one band on    1 cores,    1 groups
 vasp.6.3.2 27Jun22 (build Oct 19 2022 15:35:57) complex                        
  
 POSCAR found :  1 types and       1 ions
 scaLAPACK will be used
 LDA part: xc-table for Pade appr. of Perdew
 POSCAR, INCAR and KPOINTS ok, starting setup
 FFT: planning ... GRIDC
 FFT: planning ... GRID_SOFT
 FFT: planning ... GRID
 WAVECAR not read
 entering main loop
       N       E                     dE             d eps       ncg     rms          rms(c)
DAV:   1    -0.355777551542E+01   -0.35578E+01   -0.12267E+03   786   0.281E+02
DAV:   2    -0.487954142640E+01   -0.13218E+01   -0.13016E+01   960   0.249E+01
DAV:   3    -0.488739218903E+01   -0.78508E-02   -0.78507E-02   804   0.180E+00
DAV:   4    -0.488739742687E+01   -0.52378E-05   -0.52382E-05   960   0.467E-02
DAV:   5    -0.488739742835E+01   -0.14794E-08   -0.20403E-08   702   0.647E-04    0.810E-01
DAV:   6    -0.487293596627E+01    0.14461E-01   -0.38913E-03   708   0.365E-01    0.485E-01
DAV:   7    -0.486452045464E+01    0.84155E-02   -0.87933E-03   714   0.548E-01    0.244E-02
DAV:   8    -0.486450418112E+01    0.16274E-04   -0.25075E-05   624   0.450E-02
   1 F= -.48645042E+01 E0= -.48630064E+01  d E =-.299563E-02
 writing wavefunctions
a= 3.9
 ----------------------------------------------------
    OOO  PPPP  EEEEE N   N M   M PPPP
   O   O P   P E     NN  N MM MM P   P
   O   O PPPP  EEEEE N N N M M M PPPP   -- VERSION
   O   O P     E     N  NN M   M P
    OOO  P     EEEEE N   N M   M P
 ----------------------------------------------------
 running    1 mpi-ranks, with    1 threads/rank
 distrk:  each k-point on    1 cores,    1 groups
 distr:  one band on    1 cores,    1 groups
 vasp.6.3.2 27Jun22 (build Oct 19 2022 15:35:57) complex                        
  
 POSCAR found :  1 types and       1 ions
 scaLAPACK will be used
 LDA part: xc-table for Pade appr. of Perdew
 POSCAR, INCAR and KPOINTS ok, starting setup
 FFT: planning ... GRIDC
 FFT: planning ... GRID_SOFT
 FFT: planning ... GRID
 WAVECAR not read
 entering main loop
       N       E                     dE             d eps       ncg     rms          rms(c)
DAV:   1    -0.307506254566E+01   -0.30751E+01   -0.12475E+03   732   0.285E+02
DAV:   2    -0.488666508592E+01   -0.18116E+01   -0.17027E+01  1008   0.280E+01
DAV:   3    -0.489750454888E+01   -0.10839E-01   -0.10837E-01   756   0.231E+00
DAV:   4    -0.489751186571E+01   -0.73168E-05   -0.73185E-05  1014   0.616E-02
DAV:   5    -0.489751187036E+01   -0.46558E-08   -0.30593E-08   666   0.796E-04    0.760E-01
DAV:   6    -0.488468164729E+01    0.12830E-01   -0.40779E-03   744   0.369E-01    0.453E-01
DAV:   7    -0.487740165197E+01    0.72800E-02   -0.89229E-03   726   0.544E-01    0.253E-02
DAV:   8    -0.487738474615E+01    0.16906E-04   -0.31808E-05   600   0.500E-02
   1 F= -.48773847E+01 E0= -.48758539E+01  d E =-.306175E-02
 writing wavefunctions
a= 4.0
 ----------------------------------------------------
    OOO  PPPP  EEEEE N   N M   M PPPP
   O   O P   P E     NN  N MM MM P   P
   O   O PPPP  EEEEE N N N M M M PPPP   -- VERSION
   O   O P     E     N  NN M   M P
    OOO  P     EEEEE N   N M   M P
 ----------------------------------------------------
 running    1 mpi-ranks, with    1 threads/rank
 distrk:  each k-point on    1 cores,    1 groups
 distr:  one band on    1 cores,    1 groups
 vasp.6.3.2 27Jun22 (build Oct 19 2022 15:35:57) complex                        
  
 POSCAR found :  1 types and       1 ions
 scaLAPACK will be used
 LDA part: xc-table for Pade appr. of Perdew
 POSCAR, INCAR and KPOINTS ok, starting setup
 FFT: planning ... GRIDC
 FFT: planning ... GRID_SOFT
 FFT: planning ... GRID
 WAVECAR not read
 entering main loop
       N       E                     dE             d eps       ncg     rms          rms(c)
DAV:   1    -0.338772931831E+01   -0.33877E+01   -0.11280E+03   738   0.277E+02
DAV:   2    -0.485703432351E+01   -0.14693E+01   -0.14261E+01   990   0.253E+01
DAV:   3    -0.486622498359E+01   -0.91907E-02   -0.91895E-02   786   0.201E+00
DAV:   4    -0.486623118734E+01   -0.62037E-05   -0.62050E-05  1014   0.547E-02
DAV:   5    -0.486623119380E+01   -0.64541E-08   -0.54372E-08   714   0.110E-03    0.712E-01
DAV:   6    -0.485500402870E+01    0.11227E-01   -0.41179E-03   756   0.368E-01    0.424E-01
DAV:   7    -0.484875763184E+01    0.62464E-02   -0.88485E-03   696   0.536E-01    0.250E-02
DAV:   8    -0.484874365625E+01    0.13976E-04   -0.34042E-05   642   0.527E-02
   1 F= -.48487437E+01 E0= -.48481093E+01  d E =-.126878E-02
 writing wavefunctions
a= 4.1
 ----------------------------------------------------
    OOO  PPPP  EEEEE N   N M   M PPPP
   O   O P   P E     NN  N MM MM P   P
   O   O PPPP  EEEEE N N N M M M PPPP   -- VERSION
   O   O P     E     N  NN M   M P
    OOO  P     EEEEE N   N M   M P
 ----------------------------------------------------
 running    1 mpi-ranks, with    1 threads/rank
 distrk:  each k-point on    1 cores,    1 groups
 distr:  one band on    1 cores,    1 groups
 vasp.6.3.2 27Jun22 (build Oct 19 2022 15:35:57) complex                        
  
 POSCAR found :  1 types and       1 ions
 scaLAPACK will be used
 LDA part: xc-table for Pade appr. of Perdew
 POSCAR, INCAR and KPOINTS ok, starting setup
 FFT: planning ... GRIDC
 FFT: planning ... GRID_SOFT
 FFT: planning ... GRID
 WAVECAR not read
 entering main loop
       N       E                     dE             d eps       ncg     rms          rms(c)
DAV:   1    -0.318796047451E+01   -0.31880E+01   -0.11643E+03   708   0.282E+02
DAV:   2    -0.478844220079E+01   -0.16005E+01   -0.14880E+01   966   0.253E+01
DAV:   3    -0.480161673391E+01   -0.13175E-01   -0.13172E-01   780   0.240E+00
DAV:   4    -0.480162817226E+01   -0.11438E-04   -0.11439E-04  1014   0.747E-02
DAV:   5    -0.480162818183E+01   -0.95668E-08   -0.92992E-08   738   0.160E-03    0.687E-01
DAV:   6    -0.479103570415E+01    0.10592E-01   -0.44186E-03   726   0.380E-01    0.408E-01
DAV:   7    -0.478527469717E+01    0.57610E-02   -0.93886E-03   738   0.548E-01    0.249E-02
DAV:   8    -0.478526337489E+01    0.11322E-04   -0.41429E-05   642   0.567E-02
   1 F= -.47852634E+01 E0= -.47844854E+01  d E =-.155599E-02
 writing wavefunctions
a= 4.2
 ----------------------------------------------------
    OOO  PPPP  EEEEE N   N M   M PPPP
   O   O P   P E     NN  N MM MM P   P
   O   O PPPP  EEEEE N N N M M M PPPP   -- VERSION
   O   O P     E     N  NN M   M P
    OOO  P     EEEEE N   N M   M P
 ----------------------------------------------------
 running    1 mpi-ranks, with    1 threads/rank
 distrk:  each k-point on    1 cores,    1 groups
 distr:  one band on    1 cores,    1 groups
 vasp.6.3.2 27Jun22 (build Oct 19 2022 15:35:57) complex                        
  
 POSCAR found :  1 types and       1 ions
 scaLAPACK will be used
 LDA part: xc-table for Pade appr. of Perdew
 POSCAR, INCAR and KPOINTS ok, starting setup
 FFT: planning ... GRIDC
 FFT: planning ... GRID_SOFT
 FFT: planning ... GRID
 WAVECAR not read
 entering main loop
       N       E                     dE             d eps       ncg     rms          rms(c)
DAV:   1    -0.277906767349E+01   -0.27791E+01   -0.11401E+03   702   0.284E+02
DAV:   2    -0.469283075288E+01   -0.19138E+01   -0.17394E+01  1032   0.261E+01
DAV:   3    -0.470907218498E+01   -0.16241E-01   -0.16218E-01   732   0.260E+00
DAV:   4    -0.470909523505E+01   -0.23050E-04   -0.23050E-04  1056   0.106E-01
DAV:   5    -0.470909525015E+01   -0.15105E-07   -0.15751E-07   684   0.189E-03    0.668E-01
DAV:   6    -0.469900163043E+01    0.10094E-01   -0.47154E-03   750   0.391E-01    0.396E-01
DAV:   7    -0.469370241253E+01    0.52992E-02   -0.97694E-03   720   0.557E-01    0.268E-02
DAV:   8    -0.469369467090E+01    0.77416E-05   -0.53404E-05   708   0.631E-02
   1 F= -.46936947E+01 E0= -.46922530E+01  d E =-.288338E-02
 writing wavefunctions
a= 4.3
 ----------------------------------------------------
    OOO  PPPP  EEEEE N   N M   M PPPP
   O   O P   P E     NN  N MM MM P   P
   O   O PPPP  EEEEE N N N M M M PPPP   -- VERSION
   O   O P     E     N  NN M   M P
    OOO  P     EEEEE N   N M   M P
 ----------------------------------------------------
 running    1 mpi-ranks, with    1 threads/rank
 distrk:  each k-point on    1 cores,    1 groups
 distr:  one band on    1 cores,    1 groups
 vasp.6.3.2 27Jun22 (build Oct 19 2022 15:35:57) complex                        
  
 POSCAR found :  1 types and       1 ions
 scaLAPACK will be used
 LDA part: xc-table for Pade appr. of Perdew
 POSCAR, INCAR and KPOINTS ok, starting setup
 FFT: planning ... GRIDC
 FFT: planning ... GRID_SOFT
 FFT: planning ... GRID
 WAVECAR not read
 entering main loop
       N       E                     dE             d eps       ncg     rms          rms(c)
DAV:   1    -0.278443218912E+01   -0.27844E+01   -0.10326E+03   732   0.272E+02
DAV:   2    -0.457816012497E+01   -0.17937E+01   -0.16606E+01   966   0.262E+01
DAV:   3    -0.459700792344E+01   -0.18848E-01   -0.18605E-01   816   0.264E+00
DAV:   4    -0.459703249252E+01   -0.24569E-04   -0.24568E-04   990   0.101E-01
DAV:   5    -0.459703253054E+01   -0.38028E-07   -0.37923E-07   786   0.275E-03    0.644E-01
DAV:   6    -0.458777581308E+01    0.92567E-02   -0.48038E-03   768   0.394E-01    0.380E-01
DAV:   7    -0.458311825578E+01    0.46576E-02   -0.96550E-03   720   0.555E-01    0.277E-02
DAV:   8    -0.458311666420E+01    0.15916E-05   -0.61228E-05   714   0.667E-02
   1 F= -.45831167E+01 E0= -.45811837E+01  d E =-.386598E-02
 writing wavefunctions
3.5 1 F= -.44256712E+01 E0= -.44233993E+01 d E =-.454386E-02
3.6 1 F= -.46614700E+01 E0= -.46600410E+01 d E =-.285790E-02
3.7 1 F= -.47979864E+01 E0= -.47959298E+01 d E =-.411323E-02
3.8 1 F= -.48645042E+01 E0= -.48630064E+01 d E =-.299563E-02
3.9 1 F= -.48773847E+01 E0= -.48758539E+01 d E =-.306175E-02
4.0 1 F= -.48487437E+01 E0= -.48481093E+01 d E =-.126878E-02
4.1 1 F= -.47852634E+01 E0= -.47844854E+01 d E =-.155599E-02
4.2 1 F= -.46936947E+01 E0= -.46922530E+01 d E =-.288338E-02
4.3 1 F= -.45831167E+01 E0= -.45811837E+01 d E =-.386598E-02
