<?xml version="1.0" encoding="ISO-8859-1"?>
<modeling>
 <generator>
  <i name="program" type="string">vasp </i>
  <i name="version" type="string">6.3.2  </i>
  <i name="subversion" type="string">27Jun22 (build Oct 19 2022 15:35:57) complex                          parallel </i>
  <i name="platform" type="string">LinuxIFC </i>
  <i name="date" type="string">2023 09 18 </i>
  <i name="time" type="string">23:05:33 </i>
 </generator>
 <incar>
  <i type="string" name="SYSTEM">fcc Si</i>
  <i type="int" name="ISTART">     0</i>
  <i type="int" name="ICHARG">     2</i>
  <i name="ENCUT">    240.00000000</i>
  <i type="int" name="ISMEAR">     0</i>
  <i name="SIGMA">      0.10000000</i>
 </incar>
 <primitive_cell>
  <structure name="primitive_cell" >
   <crystal>
    <varray name="basis" >
     <v>       2.15000000       2.15000000       0.00000000 </v>
     <v>       0.00000000       2.15000000       2.15000000 </v>
     <v>       2.15000000       0.00000000       2.15000000 </v>
    </varray>
    <i name="volume">     19.87675000 </i>
    <varray name="rec_basis" >
     <v>       0.23255814       0.23255814      -0.23255814 </v>
     <v>      -0.23255814       0.23255814       0.23255814 </v>
     <v>       0.23255814      -0.23255814       0.23255814 </v>
    </varray>
   </crystal>
   <varray name="positions" >
    <v>       0.00000000       0.00000000       0.00000000 </v>
   </varray>
  </structure>
  <varray name="primitive_index" >
   <v type="int" >        1 </v>
  </varray>
 </primitive_cell>
 <kpoints>
  <generation param="Monkhorst-Pack">
   <v type="int" name="divisions">      11       11       11 </v>
   <v name="usershift">      0.00000000       0.00000000       0.00000000 </v>
   <v name="genvec1">      0.09090909       0.00000000       0.00000000 </v>
   <v name="genvec2">      0.00000000       0.09090909      -0.00000000 </v>
   <v name="genvec3">     -0.00000000      -0.00000000       0.09090909 </v>
   <v name="shift">      0.00000000       0.00000000       0.00000000 </v>
  </generation>
  <varray name="kpointlist" >
   <v>       0.00000000       0.00000000       0.00000000 </v>
   <v>       0.09090909       0.00000000       0.00000000 </v>
   <v>       0.18181818       0.00000000       0.00000000 </v>
   <v>       0.27272727       0.00000000       0.00000000 </v>
   <v>       0.36363636       0.00000000       0.00000000 </v>
   <v>       0.45454545       0.00000000       0.00000000 </v>
   <v>       0.09090909       0.09090909      -0.00000000 </v>
   <v>       0.18181818       0.09090909       0.00000000 </v>
   <v>       0.27272727       0.09090909       0.00000000 </v>
   <v>       0.36363636       0.09090909       0.00000000 </v>
   <v>       0.45454545       0.09090909       0.00000000 </v>
   <v>      -0.45454545       0.09090909      -0.00000000 </v>
   <v>      -0.36363636       0.09090909      -0.00000000 </v>
   <v>      -0.27272727       0.09090909      -0.00000000 </v>
   <v>      -0.18181818       0.09090909      -0.00000000 </v>
   <v>      -0.09090909       0.09090909      -0.00000000 </v>
   <v>       0.18181818       0.18181818       0.00000000 </v>
   <v>       0.27272727       0.18181818       0.00000000 </v>
   <v>       0.36363636       0.18181818       0.00000000 </v>
   <v>       0.45454545       0.18181818       0.00000000 </v>
   <v>      -0.45454545       0.18181818       0.00000000 </v>
   <v>      -0.36363636       0.18181818      -0.00000000 </v>
   <v>      -0.27272727       0.18181818      -0.00000000 </v>
   <v>      -0.18181818       0.18181818      -0.00000000 </v>
   <v>       0.27272727       0.27272727       0.00000000 </v>
   <v>       0.36363636       0.27272727       0.00000000 </v>
   <v>       0.45454545       0.27272727       0.00000000 </v>
   <v>      -0.45454545       0.27272727       0.00000000 </v>
   <v>      -0.36363636       0.27272727      -0.00000000 </v>
   <v>      -0.27272727       0.27272727      -0.00000000 </v>
   <v>       0.36363636       0.36363636       0.00000000 </v>
   <v>       0.45454545       0.36363636       0.00000000 </v>
   <v>      -0.45454545       0.36363636      -0.00000000 </v>
   <v>      -0.36363636       0.36363636      -0.00000000 </v>
   <v>       0.45454545       0.45454545       0.00000000 </v>
   <v>      -0.45454545       0.45454545      -0.00000000 </v>
   <v>       0.27272727       0.18181818       0.09090909 </v>
   <v>       0.36363636       0.18181818       0.09090909 </v>
   <v>       0.45454545       0.18181818       0.09090909 </v>
   <v>      -0.45454545       0.18181818       0.09090909 </v>
   <v>       0.36363636       0.27272727       0.09090909 </v>
   <v>       0.45454545       0.27272727       0.09090909 </v>
   <v>      -0.45454545       0.27272727       0.09090909 </v>
   <v>      -0.36363636       0.27272727       0.09090909 </v>
   <v>      -0.27272727       0.27272727       0.09090909 </v>
   <v>      -0.18181818       0.27272727       0.09090909 </v>
   <v>       0.45454545       0.36363636       0.09090909 </v>
   <v>      -0.45454545       0.36363636       0.09090909 </v>
   <v>      -0.36363636       0.36363636       0.09090909 </v>
   <v>      -0.27272727       0.36363636       0.09090909 </v>
   <v>      -0.45454545       0.45454545       0.09090909 </v>
   <v>      -0.36363636       0.45454545       0.09090909 </v>
   <v>      -0.45454545       0.36363636       0.18181818 </v>
   <v>      -0.36363636       0.36363636       0.18181818 </v>
   <v>      -0.36363636       0.45454545       0.18181818 </v>
   <v>      -0.27272727       0.45454545       0.18181818 </v>
  </varray>
  <varray name="weights" >
   <v>       0.00075131 </v>
   <v>       0.00601052 </v>
   <v>       0.00601052 </v>
   <v>       0.00601052 </v>
   <v>       0.00601052 </v>
   <v>       0.00601052 </v>
   <v>       0.00450789 </v>
   <v>       0.01803156 </v>
   <v>       0.01803156 </v>
   <v>       0.01803156 </v>
   <v>       0.01803156 </v>
   <v>       0.01803156 </v>
   <v>       0.01803156 </v>
   <v>       0.01803156 </v>
   <v>       0.01803156 </v>
   <v>       0.00901578 </v>
   <v>       0.00450789 </v>
   <v>       0.01803156 </v>
   <v>       0.01803156 </v>
   <v>       0.01803156 </v>
   <v>       0.01803156 </v>
   <v>       0.01803156 </v>
   <v>       0.01803156 </v>
   <v>       0.00901578 </v>
   <v>       0.00450789 </v>
   <v>       0.01803156 </v>
   <v>       0.01803156 </v>
   <v>       0.01803156 </v>
   <v>       0.01803156 </v>
   <v>       0.00901578 </v>
   <v>       0.00450789 </v>
   <v>       0.01803156 </v>
   <v>       0.01803156 </v>
   <v>       0.00901578 </v>
   <v>       0.00450789 </v>
   <v>       0.00901578 </v>
   <v>       0.01803156 </v>
   <v>       0.03606311 </v>
   <v>       0.03606311 </v>
   <v>       0.03606311 </v>
   <v>       0.01803156 </v>
   <v>       0.03606311 </v>
   <v>       0.03606311 </v>
   <v>       0.03606311 </v>
   <v>       0.03606311 </v>
   <v>       0.01803156 </v>
   <v>       0.01803156 </v>
   <v>       0.03606311 </v>
   <v>       0.03606311 </v>
   <v>       0.01803156 </v>
   <v>       0.01803156 </v>
   <v>       0.01803156 </v>
   <v>       0.01803156 </v>
   <v>       0.03606311 </v>
   <v>       0.01803156 </v>
   <v>       0.01803156 </v>
  </varray>
 </kpoints>
 <parameters>
  <separator name="general" >
   <i type="string" name="SYSTEM">fcc Si</i>
   <i type="logical" name="LCOMPAT"> F  </i>
  </separator>
  <separator name="electronic" >
   <i type="string" name="PREC">normal</i>
   <i name="ENMAX">    240.00000000</i>
   <i name="ENAUG">    322.06900000</i>
   <i name="EDIFF">      0.00010000</i>
   <i type="int" name="IALGO">    38</i>
   <i type="int" name="IWAVPR">    10</i>
   <i type="int" name="NBANDS">     6</i>
   <i type="int" name="NBANDSLOW">    -1</i>
   <i type="int" name="NBANDSHIGH">    -1</i>
   <i name="NELECT">      4.00000000</i>
   <i type="int" name="TURBO">     0</i>
   <i type="int" name="IRESTART">     0</i>
   <i type="int" name="NREBOOT">     0</i>
   <i type="int" name="NMIN">     0</i>
   <i name="EREF">      0.00000000</i>
   <separator name="electronic smearing" >
    <i type="int" name="ISMEAR">     0</i>
    <i name="SIGMA">      0.10000000</i>
    <i name="KSPACING">      0.50000000</i>
    <i type="logical" name="KGAMMA"> T  </i>
    <i type="logical" name="KBLOWUP"> T  </i>
   </separator>
   <separator name="electronic projectors" >
    <i type="logical" name="LREAL"> F  </i>
    <v name="ROPT">      0.00000000</v>
    <i type="int" name="LMAXPAW">  -100</i>
    <i type="int" name="LMAXMIX">     2</i>
    <i type="logical" name="NLSPLINE"> F  </i>
   </separator>
   <separator name="electronic startup" >
    <i type="int" name="ISTART">     0</i>
    <i type="int" name="ICHARG">     2</i>
    <i type="int" name="INIWAV">     1</i>
   </separator>
   <separator name="electronic spin" >
    <i type="int" name="ISPIN">     1</i>
    <i type="logical" name="LNONCOLLINEAR"> F  </i>
    <v name="MAGMOM">      1.00000000</v>
    <i name="NUPDOWN">     -1.00000000</i>
    <i type="logical" name="LSORBIT"> F  </i>
    <v name="SAXIS">      0.00000000      0.00000000      1.00000000</v>
    <i type="logical" name="LSPIRAL"> F  </i>
    <v name="QSPIRAL">      0.00000000      0.00000000      0.00000000</v>
    <i type="logical" name="LZEROZ"> F  </i>
   </separator>
   <separator name="electronic exchange-correlation" >
    <i type="logical" name="LASPH"> F  </i>
    <i type="logical" name="LMETAGGA"> F  </i>
   </separator>
   <separator name="electronic convergence" >
    <i type="int" name="NELM">    60</i>
    <i type="int" name="NELMDL">    -5</i>
    <i type="int" name="NELMIN">     2</i>
    <i name="ENINI">    240.00000000</i>
    <separator name="electronic convergence detail" >
     <i type="logical" name="LDIAG"> T  </i>
     <i type="logical" name="LSUBROT"> F  </i>
     <i name="WEIMIN">      0.00000000</i>
     <i name="EBREAK">      0.00000417</i>
     <i name="DEPER">      0.30000000</i>
     <i type="int" name="NRMM">     4</i>
     <i name="TIME">      0.40000000</i>
    </separator>
   </separator>
   <separator name="electronic mixer" >
    <i name="AMIX">      0.40000000</i>
    <i name="BMIX">      1.00000000</i>
    <i name="AMIN">      0.10000000</i>
    <i name="AMIX_MAG">      1.60000000</i>
    <i name="BMIX_MAG">      1.00000000</i>
    <separator name="electronic mixer details" >
     <i type="int" name="IMIX">     4</i>
     <i type="logical" name="MIXFIRST"> F  </i>
     <i type="int" name="MAXMIX">   -45</i>
     <i name="WC">    100.00000000</i>
     <i type="int" name="INIMIX">     1</i>
     <i type="int" name="MIXPRE">     1</i>
     <i type="int" name="MREMOVE">     5</i>
    </separator>
   </separator>
   <separator name="electronic dipolcorrection" >
    <i type="logical" name="LDIPOL"> F  </i>
    <i type="logical" name="LMONO"> F  </i>
    <i type="int" name="IDIPOL">     0</i>
    <i name="EPSILON">      1.00000000</i>
    <v name="DIPOL">   -100.00000000   -100.00000000   -100.00000000</v>
    <i name="EFIELD">      0.00000000</i>
   </separator>
  </separator>
  <separator name="grids" >
   <i type="int" name="NGX">    12</i>
   <i type="int" name="NGY">    12</i>
   <i type="int" name="NGZ">    12</i>
   <i type="int" name="NGXF">    24</i>
   <i type="int" name="NGYF">    24</i>
   <i type="int" name="NGZF">    24</i>
   <i type="logical" name="ADDGRID"> F  </i>
  </separator>
  <separator name="ionic" >
   <i type="int" name="NSW">     0</i>
   <i type="int" name="IBRION">    -1</i>
   <i type="int" name="MDALGO">     0</i>
   <i type="int" name="ISIF">     2</i>
   <i name="PSTRESS">      0.00000000</i>
   <i name="EDIFFG">      0.00100000</i>
   <i type="int" name="NFREE">     0</i>
   <i name="POTIM">      0.50000000</i>
   <i name="SMASS">     -3.00000000</i>
   <i name="SCALEE">      1.00000000</i>
  </separator>
  <separator name="ionic md" >
   <i name="TEBEG">      0.00010000</i>
   <i name="TEEND">      0.00010000</i>
   <i type="int" name="NBLOCK">     1</i>
   <i type="int" name="KBLOCK">     1</i>
   <i type="int" name="NPACO">   256</i>
   <i name="APACO">     10.00000000</i>
  </separator>
  <separator name="symmetry" >
   <i type="int" name="ISYM">     2</i>
   <i name="SYMPREC">      0.00001000</i>
  </separator>
  <separator name="dos" >
   <i type="int" name="LORBIT">     0</i>
   <v name="RWIGS">     -1.00000000</v>
   <i type="int" name="NEDOS">   301</i>
   <i name="EMIN">     10.00000000</i>
   <i name="EMAX">    -10.00000000</i>
   <i name="EFERMI">      0.00000000</i>
  </separator>
  <separator name="writing" >
   <i type="int" name="NWRITE">     2</i>
   <i type="logical" name="LWAVE"> T  </i>
   <i type="logical" name="LDOWNSAMPLE"> F  </i>
   <i type="logical" name="LCHARG"> T  </i>
   <i type="logical" name="LPARD"> F  </i>
   <i type="logical" name="LVTOT"> F  </i>
   <i type="logical" name="LVHAR"> F  </i>
   <i type="logical" name="LELF"> F  </i>
   <i type="logical" name="LOPTICS"> F  </i>
   <v name="STM">      0.00000000      0.00000000      0.00000000      0.00000000      0.00000000      0.00000000      0.00000000</v>
  </separator>
  <separator name="performance" >
   <i type="int" name="NPAR">     1</i>
   <i type="int" name="NSIM">     4</i>
   <i type="int" name="NBLK">    -1</i>
   <i type="logical" name="LPLANE"> T  </i>
   <i type="logical" name="LSCALAPACK"> T  </i>
   <i type="logical" name="LSCAAWARE"> F  </i>
   <i type="logical" name="LSCALU"> F  </i>
   <i type="logical" name="LASYNC"> F  </i>
   <i type="logical" name="LORBITALREAL"> F  </i>
  </separator>
  <separator name="miscellaneous" >
   <i type="int" name="IDIOT">     3</i>
   <i type="int" name="PHON_NSTRUCT">    -1</i>
   <i type="logical" name="LMUSIC"> F  </i>
   <v name="POMASS">     28.08500000</v>
   <v name="DARWINR">      0.00000000</v>
   <v name="DARWINV">      1.00000000</v>
   <i type="logical" name="LCORR"> T  </i>
  </separator>
  <i type="logical" name="GGA_COMPAT"> T  </i>
  <i type="logical" name="LBERRY"> F  </i>
  <i type="int" name="ICORELEVEL">     0</i>
  <i type="logical" name="LDAU"> F  </i>
  <i type="int" name="I_CONSTRAINED_M">     0</i>
  <separator name="electronic exchange-correlation" >
   <i type="string" name="GGA">--</i>
   <i type="int" name="VOSKOWN">     0</i>
   <i type="logical" name="LHFCALC"> F  </i>
   <i type="string" name="PRECFOCK"></i>
   <i type="logical" name="LSYMGRAD"> F  </i>
   <i type="logical" name="LHFONE"> F  </i>
   <i type="logical" name="LRHFCALC"> F  </i>
   <i type="logical" name="LTHOMAS"> F  </i>
   <i type="logical" name="LMODELHF"> F  </i>
   <i type="logical" name="LFOCKACE"> F  </i>
   <i name="ENCUT4O">     -1.00000000</i>
   <i type="int" name="EXXOEP">     0</i>
   <i type="int" name="FOURORBIT">     0</i>
   <i name="AEXX">      0.00000000</i>
   <i name="HFALPHA">      0.00000000</i>
   <i name="MCALPHA">      0.00000000</i>
   <i name="ALDAX">      1.00000000</i>
   <i name="AGGAX">      1.00000000</i>
   <i name="ALDAC">      1.00000000</i>
   <i name="AGGAC">      1.00000000</i>
   <i type="int" name="NKREDX">     1</i>
   <i type="int" name="NKREDY">     1</i>
   <i type="int" name="NKREDZ">     1</i>
   <i type="logical" name="SHIFTRED"> F  </i>
   <i type="logical" name="ODDONLY"> F  </i>
   <i type="logical" name="EVENONLY"> F  </i>
   <i type="int" name="LMAXFOCK">     0</i>
   <i type="int" name="NMAXFOCKAE">     0</i>
   <i type="logical" name="LFOCKAEDFT"> F  </i>
   <i name="HFSCREEN">      0.00000000</i>
   <i name="HFSCREENC">      0.00000000</i>
   <i type="int" name="NBANDSGWLOW">     0</i>
  </separator>
  <separator name="vdW DFT" >
   <i type="logical" name="LUSE_VDW"> F  </i>
   <i name="Zab_VDW">     -0.84910000</i>
   <i name="PARAM1">      0.12340000</i>
   <i name="PARAM2">      1.00000000</i>
   <i name="PARAM3">      0.00000000</i>
  </separator>
  <separator name="model GW" >
   <i type="int" name="MODEL_GW">     0</i>
   <i name="MODEL_EPS0">     11.92605000</i>
   <i name="MODEL_ALPHA">      1.00000000</i>
  </separator>
  <separator name="linear response parameters" >
   <i type="logical" name="LEPSILON"> F  </i>
   <i type="logical" name="LRPA"> F  </i>
   <i type="logical" name="LNABLA"> F  </i>
   <i type="logical" name="LVEL"> F  </i>
   <i name="CSHIFT">      0.10000000</i>
   <i name="OMEGAMAX">     -1.00000000</i>
   <i name="DEG_THRESHOLD">      0.00200000</i>
   <i name="RTIME">     -0.10000000</i>
   <i name="WPLASMAI">      0.00000000</i>
   <v name="DFIELD">      0.00000000      0.00000000      0.00000000</v>
   <v name="WPLASMA">      0.00000000      0.00000000      0.00000000      0.00000000      0.00000000      0.00000000      0.00000000      0.00000000      0.00000000</v>
  </separator>
  <separator name="orbital magnetization" >
   <i type="logical" name="NUCIND"> F  </i>
   <v name="MAGPOS">      0.00000000      0.00000000      0.00000000</v>
   <i type="logical" name="LNICSALL"> T  </i>
   <i type="logical" name="ORBITALMAG"> F  </i>
   <i type="logical" name="LMAGBLOCH"> F  </i>
   <i type="logical" name="LCHIMAG"> F  </i>
   <i type="logical" name="LGAUGE"> T  </i>
   <i type="int" name="MAGATOM">     0</i>
   <v name="MAGDIPOL">      0.00000000      0.00000000      0.00000000</v>
   <v name="AVECCONST">      0.00000000      0.00000000      0.00000000</v>
  </separator>
  <separator name="response functions" >
   <i type="logical" name="LFINITE_TEMPERATURE"> F  </i>
   <i type="logical" name="LADDER"> F  </i>
   <i type="logical" name="LRPAFORCE"> F  </i>
   <i type="logical" name="LFXC"> F  </i>
   <i type="logical" name="LHARTREE"> T  </i>
   <i type="int" name="IBSE">     0</i>
   <v type="int" name="KPOINT">    -1     0     0     0</v>
   <i type="logical" name="LTCTC"> F  </i>
   <i type="logical" name="LTCTE"> F  </i>
   <i type="logical" name="LTETE"> F  </i>
   <i type="logical" name="LTRIPLET"> F  </i>
   <i type="logical" name="LFXCEPS"> F  </i>
   <i type="logical" name="LFXHEG"> F  </i>
   <i type="int" name="NATURALO">     2</i>
   <i type="logical" name="LHOLEGF"> F  </i>
   <i type="logical" name="L2ORDER"> F  </i>
   <i type="logical" name="LDMP1"> F  </i>
   <i type="logical" name="LMP2LT"> F  </i>
   <i type="logical" name="LSMP2LT"> F  </i>
   <i type="logical" name="LGWLF"> F  </i>
   <i name="ENCUTGW">     -2.00000000</i>
   <i name="ENCUTGWSOFT">     -2.00000000</i>
   <i name="ENCUTLF">     -1.00000000</i>
   <i type="logical" name="LESF_SPLINES"> F  </i>
   <i type="int" name="LMAXMP2">    -1</i>
   <i name="SCISSOR">      0.00000000</i>
   <i type="int" name="NOMEGA">     0</i>
   <i type="int" name="NOMEGAR">     0</i>
   <i type="int" name="NBANDSGW">    -1</i>
   <i type="int" name="NBANDSO">    -1</i>
   <i type="int" name="NBANDSV">    -1</i>
   <i type="int" name="NELMGW">     1</i>
   <i type="int" name="NELMHF">     1</i>
   <i type="int" name="DIM">     3</i>
   <i type="int" name="IESPILON">     4</i>
   <i type="int" name="ANTIRES">     0</i>
   <i name="OMEGAMAX">    -30.00000000</i>
   <i name="OMEGAMIN">    -30.00000000</i>
   <i name="OMEGATL">   -200.00000000</i>
   <i type="int" name="OMEGAGRID">     0</i>
   <i name="CSHIFT">     -0.10000000</i>
   <i type="logical" name="LSELFENERGY"> F  </i>
   <i type="logical" name="LSPECTRAL"> F  </i>
   <i type="logical" name="LSPECTRALGW"> F  </i>
   <i type="logical" name="LSINGLES"> F  </i>
   <i type="logical" name="LFERMIGW"> F  </i>
   <i type="logical" name="ODDONLYGW"> F  </i>
   <i type="logical" name="EVENONLYGW"> F  </i>
   <i type="int" name="NKREDLFX">     1</i>
   <i type="int" name="NKREDLFY">     1</i>
   <i type="int" name="NKREDLFZ">     1</i>
   <i type="int" name="MAXMEM">  2800</i>
   <i type="int" name="TELESCOPE">     0</i>
   <i type="int" name="NTAUPAR">    -1</i>
   <i type="int" name="NOMEGAPAR">    -1</i>
   <i name="DAMP_NEWTON">      0.80000001</i>
   <i name="LAMBDA">      1.00000000</i>
  </separator>
  <separator name="External order field" >
   <i name="OFIELD_KAPPA">      0.00000000</i>
   <v name="OFIELD_K">      0.00000000      0.00000000      0.00000000</v>
   <i name="OFIELD_Q6_NEAR">      0.00000000</i>
   <i name="OFIELD_Q6_FAR">      0.00000000</i>
   <i name="OFIELD_A">      0.00000000</i>
  </separator>
  <separator name="optional k-points parameters" >
   <i type="int" name="KPOINTS_OPT_MODE">     1</i>
   <i type="logical" name="LKPOINTS_OPT"> F  </i>
  </separator>
 </parameters>
 <atominfo>
  <atoms>       1 </atoms>
  <types>       1 </types>
  <array name="atoms" >
   <dimension dim="1">ion</dimension>
   <field type="string">element</field>
   <field type="int">atomtype</field>
   <set>
    <rc><c>Si</c><c>   1</c></rc>
   </set>
  </array>
  <array name="atomtypes" >
   <dimension dim="1">type</dimension>
   <field type="int">atomspertype</field>
   <field type="string">element</field>
   <field>mass</field>
   <field>valence</field>
   <field type="string">pseudopotential</field>
   <set>
    <rc><c>   1</c><c>Si</c><c>     28.08500000</c><c>      4.00000000</c><c> PAW_PBE Si 05Jan2001                   </c></rc>
   </set>
  </array>
 </atominfo>
 <structure name="initialpos" >
  <crystal>
   <varray name="basis" >
    <v>       2.15000000       2.15000000       0.00000000 </v>
    <v>       0.00000000       2.15000000       2.15000000 </v>
    <v>       2.15000000       0.00000000       2.15000000 </v>
   </varray>
   <i name="volume">     19.87675000 </i>
   <varray name="rec_basis" >
    <v>       0.23255814       0.23255814      -0.23255814 </v>
    <v>      -0.23255814       0.23255814       0.23255814 </v>
    <v>       0.23255814      -0.23255814       0.23255814 </v>
   </varray>
  </crystal>
  <varray name="positions" >
   <v>       0.00000000       0.00000000       0.00000000 </v>
  </varray>
 </structure>
 <calculation>
  <scstep>
   <time name="dav">    0.04    0.04</time>
   <time name="total">    0.05    0.05</time>
   <energy>
    <i name="alphaZ">      1.69359067 </i>
    <i name="ewald">   -122.82983823 </i>
    <i name="hartreedc">     -1.63218434 </i>
    <i name="XCdc">     -9.56225172 </i>
    <i name="pawpsdc">     32.97760406 </i>
    <i name="pawaedc">    -15.38426339 </i>
    <i name="eentropy">     -0.00226891 </i>
    <i name="bandstr">      8.89440309 </i>
    <i name="atom">    103.06077658 </i>
    <i name="e_fr_energy">     -2.78443219 </i>
    <i name="e_wo_entrp">     -2.78216328 </i>
    <i name="e_0_energy">     -2.78329774 </i>
   </energy>
  </scstep>
  <scstep>
   <time name="dav">    0.06    0.06</time>
   <time name="total">    0.06    0.06</time>
   <energy>
    <i name="e_fr_energy">     -4.57816012 </i>
    <i name="e_wo_entrp">     -4.57483634 </i>
    <i name="e_0_energy">     -4.57649823 </i>
   </energy>
  </scstep>
  <scstep>
   <time name="dav">    0.04    0.04</time>
   <time name="total">    0.05    0.05</time>
   <energy>
    <i name="e_fr_energy">     -4.59700792 </i>
    <i name="e_wo_entrp">     -4.59318426 </i>
    <i name="e_0_energy">     -4.59509609 </i>
   </energy>
  </scstep>
  <scstep>
   <time name="dav">    0.05    0.05</time>
   <time name="total">    0.05    0.05</time>
   <energy>
    <i name="e_fr_energy">     -4.59703249 </i>
    <i name="e_wo_entrp">     -4.59320835 </i>
    <i name="e_0_energy">     -4.59512042 </i>
   </energy>
  </scstep>
  <scstep>
   <time name="dav">    0.04    0.04</time>
   <time name="total">    0.04    0.04</time>
   <energy>
    <i name="e_fr_energy">     -4.59703253 </i>
    <i name="e_wo_entrp">     -4.59320839 </i>
    <i name="e_0_energy">     -4.59512046 </i>
   </energy>
  </scstep>
  <scstep>
   <time name="dav">    0.04    0.04</time>
   <time name="total">    0.04    0.04</time>
   <energy>
    <i name="e_fr_energy">     -4.58777581 </i>
    <i name="e_wo_entrp">     -4.58393658 </i>
    <i name="e_0_energy">     -4.58585620 </i>
   </energy>
  </scstep>
  <scstep>
   <time name="dav">    0.03    0.03</time>
   <time name="total">    0.04    0.04</time>
   <energy>
    <i name="e_fr_energy">     -4.58311826 </i>
    <i name="e_wo_entrp">     -4.57924930 </i>
    <i name="e_0_energy">     -4.58118378 </i>
   </energy>
  </scstep>
  <scstep>
   <time name="dav">    0.03    0.03</time>
   <time name="total">    0.04    0.04</time>
   <energy>
    <i name="alphaZ">      1.69359067 </i>
    <i name="ewald">   -122.82983823 </i>
    <i name="hartreedc">     -1.28509349 </i>
    <i name="XCdc">     -9.57698352 </i>
    <i name="pawpsdc">     32.68147335 </i>
    <i name="pawaedc">    -15.06100168 </i>
    <i name="eentropy">     -0.00386598 </i>
    <i name="bandstr">      6.73782562 </i>
    <i name="atom">    103.06077658 </i>
    <i name="e_fr_energy">     -4.58311666 </i>
    <i name="e_wo_entrp">     -4.57925068 </i>
    <i name="e_0_energy">     -4.58118367 </i>
   </energy>
  </scstep>
  <structure>
   <crystal>
    <varray name="basis" >
     <v>       2.15000000       2.15000000       0.00000000 </v>
     <v>       0.00000000       2.15000000       2.15000000 </v>
     <v>       2.15000000       0.00000000       2.15000000 </v>
    </varray>
    <i name="volume">     19.87675000 </i>
    <varray name="rec_basis" >
     <v>       0.23255814       0.23255814      -0.23255814 </v>
     <v>      -0.23255814       0.23255814       0.23255814 </v>
     <v>       0.23255814      -0.23255814       0.23255814 </v>
    </varray>
   </crystal>
   <varray name="positions" >
    <v>       0.00000000       0.00000000       0.00000000 </v>
   </varray>
  </structure>
  <varray name="forces" >
   <v>      -0.00000000       0.00000000       0.00000000 </v>
  </varray>
  <varray name="stress" >
   <v>    -139.09498539       0.00000000       0.00000000 </v>
   <v>       0.00000000    -139.09498539       0.00000000 </v>
   <v>       0.00000000      -0.00000000    -139.09498539 </v>
  </varray>
  <energy>
   <i name="e_fr_energy">     -4.58311666 </i>
   <i name="e_wo_entrp">     -4.57925068 </i>
   <i name="e_0_energy">     -4.58118367 </i>
  </energy>
  <time name="totalsc">    0.41    0.43</time>
  <eigenvalues>
   <array>
    <dimension dim="1">band</dimension>
    <dimension dim="2">kpoint</dimension>
    <dimension dim="3">spin</dimension>
    <field>eigene</field>
    <field>occ</field>
    <set>
     <set comment="spin 1">
      <set comment="kpoint 1">
       <r>   -5.3695    1.0000 </r>
       <r>   14.2509    0.0000 </r>
       <r>   14.2509    0.0000 </r>
       <r>   14.2509    0.0000 </r>
       <r>   17.3365    0.0000 </r>
       <r>   17.3366    0.0000 </r>
      </set>
      <set comment="kpoint 2">
       <r>   -5.1780    1.0000 </r>
       <r>   12.5690    0.0000 </r>
       <r>   13.9244    0.0000 </r>
       <r>   13.9244    0.0000 </r>
       <r>   17.4940    0.0000 </r>
       <r>   17.8553    0.0000 </r>
      </set>
      <set comment="kpoint 3">
       <r>   -4.6057    1.0000 </r>
       <r>    9.6637    0.0000 </r>
       <r>   13.3557    0.0000 </r>
       <r>   13.3558    0.0000 </r>
       <r>   17.3067    0.0000 </r>
       <r>   18.5126    0.0000 </r>
      </set>
      <set comment="kpoint 4">
       <r>   -3.6604    1.0000 </r>
       <r>    6.7479    0.0000 </r>
       <r>   12.9003    0.0000 </r>
       <r>   12.9003    0.0000 </r>
       <r>   17.0317    0.0000 </r>
       <r>   17.9376    0.0000 </r>
      </set>
      <set comment="kpoint 5">
       <r>   -2.3657    1.0000 </r>
       <r>    4.0821    1.0000 </r>
       <r>   12.6285    0.0000 </r>
       <r>   12.6286    0.0000 </r>
       <r>   16.8621    0.0000 </r>
       <r>   17.0851    0.0000 </r>
      </set>
      <set comment="kpoint 6">
       <r>   -0.8609    1.0000 </r>
       <r>    1.8823    1.0000 </r>
       <r>   12.5138    0.0000 </r>
       <r>   12.5139    0.0000 </r>
       <r>   16.5740    0.0000 </r>
       <r>   16.5743    0.0000 </r>
      </set>
      <set comment="kpoint 7">
       <r>   -5.1142    1.0000 </r>
       <r>   13.1417    0.0000 </r>
       <r>   13.1418    0.0000 </r>
       <r>   13.5504    0.0000 </r>
       <r>   16.1779    0.0000 </r>
       <r>   18.7508    0.0000 </r>
      </set>
      <set comment="kpoint 8">
       <r>   -4.6686    1.0000 </r>
       <r>   10.7519    0.0000 </r>
       <r>   12.4044    0.0000 </r>
       <r>   13.2946    0.0000 </r>
       <r>   16.1950    0.0000 </r>
       <r>   18.8501    0.0000 </r>
      </set>
      <set comment="kpoint 9">
       <r>   -3.8471    1.0000 </r>
       <r>    7.8375    0.0000 </r>
       <r>   11.9020    0.0000 </r>
       <r>   12.6814    0.0000 </r>
       <r>   16.2674    0.0000 </r>
       <r>   18.2950    0.0000 </r>
      </set>
      <set comment="kpoint 10">
       <r>   -2.6654    1.0000 </r>
       <r>    5.0857    1.0000 </r>
       <r>   11.6825    0.0000 </r>
       <r>   12.0405    0.0000 </r>
       <r>   15.7134    0.0000 </r>
       <r>   18.2196    0.0000 </r>
      </set>
      <set comment="kpoint 11">
       <r>   -1.1906    1.0000 </r>
       <r>    2.6916    1.0000 </r>
       <r>   11.4565    0.0000 </r>
       <r>   11.7461    0.0000 </r>
       <r>   15.4784    0.0000 </r>
       <r>   17.7709    0.0000 </r>
      </set>
      <set comment="kpoint 12">
       <r>   -0.3275    1.0000 </r>
       <r>    1.5975    1.0000 </r>
       <r>   11.0044    0.0000 </r>
       <r>   12.0685    0.0000 </r>
       <r>   15.7357    0.0000 </r>
       <r>   17.2595    0.0000 </r>
      </set>
      <set comment="kpoint 13">
       <r>   -1.7036    1.0000 </r>
       <r>    3.4365    1.0000 </r>
       <r>   10.7692    0.0000 </r>
       <r>   12.5902    0.0000 </r>
       <r>   16.4321    0.0000 </r>
       <r>   17.1641    0.0000 </r>
      </set>
      <set comment="kpoint 14">
       <r>   -3.0979    1.0000 </r>
       <r>    5.9765    1.0000 </r>
       <r>   10.8063    0.0000 </r>
       <r>   13.2249    0.0000 </r>
       <r>   17.4531    0.0000 </r>
       <r>   17.5428    0.0000 </r>
      </set>
      <set comment="kpoint 15">
       <r>   -4.1623    1.0000 </r>
       <r>    8.8087    0.0000 </r>
       <r>   11.1418    0.0000 </r>
       <r>   13.8548    0.0000 </r>
       <r>   17.9332    0.0000 </r>
       <r>   18.1546    0.0000 </r>
      </set>
      <set comment="kpoint 16">
       <r>   -4.8596    1.0000 </r>
       <r>   11.5826    0.0000 </r>
       <r>   11.9088    0.0000 </r>
       <r>   14.2356    0.0000 </r>
       <r>   17.7139    0.0000 </r>
       <r>   17.8350    0.0000 </r>
      </set>
      <set comment="kpoint 17">
       <r>   -4.3506    1.0000 </r>
       <r>   11.5458    0.0000 </r>
       <r>   11.5458    0.0000 </r>
       <r>   11.8422    0.0000 </r>
       <r>   14.4045    0.0000 </r>
       <r>   16.9387    0.0000 </r>
      </set>
      <set comment="kpoint 18">
       <r>   -3.6552    1.0000 </r>
       <r>    9.1285    0.0000 </r>
       <r>   10.9468    0.0000 </r>
       <r>   11.3171    0.0000 </r>
       <r>   14.4440    0.0000 </r>
       <r>   16.0851    0.0000 </r>
      </set>
      <set comment="kpoint 19">
       <r>   -2.5937    1.0000 </r>
       <r>    6.3932    0.4386 </r>
       <r>   10.3348    0.0000 </r>
       <r>   10.6519    0.0000 </r>
       <r>   14.1466    0.0000 </r>
       <r>   17.4213    0.0000 </r>
      </set>
      <set comment="kpoint 20">
       <r>   -1.2040    1.0000 </r>
       <r>    3.8940    1.0000 </r>
       <r>    9.3939    0.0000 </r>
       <r>   10.6753    0.0000 </r>
       <r>   13.9959    0.0000 </r>
       <r>   19.2183    0.0000 </r>
      </set>
      <set comment="kpoint 21">
       <r>    0.1635    1.0000 </r>
       <r>    2.0754    1.0000 </r>
       <r>    8.6601    0.0000 </r>
       <r>   11.0074    0.0000 </r>
       <r>   14.2833    0.0000 </r>
       <r>   19.2106    0.0000 </r>
      </set>
      <set comment="kpoint 22">
       <r>   -0.7006    1.0000 </r>
       <r>    3.1731    1.0000 </r>
       <r>    8.2110    0.0000 </r>
       <r>   11.6266    0.0000 </r>
       <r>   14.9859    0.0000 </r>
       <r>   18.8201    0.0000 </r>
      </set>
      <set comment="kpoint 23">
       <r>   -2.1680    1.0000 </r>
       <r>    5.5516    1.0000 </r>
       <r>    8.0847    0.0000 </r>
       <r>   12.4690    0.0000 </r>
       <r>   16.0555    0.0000 </r>
       <r>   18.8007    0.0000 </r>
      </set>
      <set comment="kpoint 24">
       <r>   -3.3446    1.0000 </r>
       <r>    8.1432    0.0000 </r>
       <r>    8.4203    0.0000 </r>
       <r>   13.3715    0.0000 </r>
       <r>   17.3892    0.0000 </r>
       <r>   19.0459    0.0000 </r>
      </set>
      <set comment="kpoint 25">
       <r>   -3.0867    1.0000 </r>
       <r>    9.4043    0.0000 </r>
       <r>   10.2442    0.0000 </r>
       <r>   10.2443    0.0000 </r>
       <r>   12.9418    0.0000 </r>
       <r>   14.2502    0.0000 </r>
      </set>
      <set comment="kpoint 26">
       <r>   -2.1496    1.0000 </r>
       <r>    7.5538    0.0000 </r>
       <r>    8.9054    0.0000 </r>
       <r>    9.8493    0.0000 </r>
       <r>   12.9415    0.0000 </r>
       <r>   14.4545    0.0000 </r>
      </set>
      <set comment="kpoint 27">
       <r>   -0.8687    1.0000 </r>
       <r>    5.2987    1.0000 </r>
       <r>    7.4701    0.0000 </r>
       <r>    9.7804    0.0000 </r>
       <r>   12.8388    0.0000 </r>
       <r>   16.5679    0.0000 </r>
      </set>
      <set comment="kpoint 28">
       <r>    0.6110    1.0000 </r>
       <r>    3.2511    1.0000 </r>
       <r>    6.4436    0.1930 </r>
       <r>   10.0369    0.0000 </r>
       <r>   13.0797    0.0000 </r>
       <r>   19.0822    0.0000 </r>
      </set>
      <set comment="kpoint 29">
       <r>    0.5765    1.0000 </r>
       <r>    3.3261    1.0000 </r>
       <r>    5.7870    1.0000 </r>
       <r>   10.6079    0.0000 </r>
       <r>   13.7188    0.0000 </r>
       <r>   21.0781    0.0000 </r>
      </set>
      <set comment="kpoint 30">
       <r>   -0.8973    1.0000 </r>
       <r>    5.4130    1.0000 </r>
       <r>    5.5711    1.0000 </r>
       <r>   11.4568    0.0000 </r>
       <r>   14.7329    0.0000 </r>
       <r>   20.4692    0.0000 </r>
      </set>
      <set comment="kpoint 31">
       <r>   -1.3387    1.0000 </r>
       <r>    6.4717    0.1030 </r>
       <r>    9.3505    0.0000 </r>
       <r>    9.3505    0.0000 </r>
       <r>   11.9350    0.0000 </r>
       <r>   12.7116    0.0000 </r>
      </set>
      <set comment="kpoint 32">
       <r>   -0.1793    1.0000 </r>
       <r>    5.0350    1.0000 </r>
       <r>    7.6927    0.0000 </r>
       <r>    9.1779    0.0000 </r>
       <r>   12.0547    0.0000 </r>
       <r>   13.6248    0.0000 </r>
      </set>
      <set comment="kpoint 33">
       <r>    1.2418    1.0000 </r>
       <r>    3.8175    1.0000 </r>
       <r>    5.5996    1.0000 </r>
       <r>    9.3365    0.0000 </r>
       <r>   12.2385    0.0000 </r>
       <r>   16.1202    0.0000 </r>
      </set>
      <set comment="kpoint 34">
       <r>    1.8141    1.0000 </r>
       <r>    3.6258    1.0000 </r>
       <r>    4.2352    1.0000 </r>
       <r>    9.8209    0.0000 </r>
       <r>   12.7924    0.0000 </r>
       <r>   18.9568    0.0000 </r>
      </set>
      <set comment="kpoint 35">
       <r>    0.8463    1.0000 </r>
       <r>    3.5743    1.0000 </r>
       <r>    8.8987    0.0000 </r>
       <r>    8.8988    0.0000 </r>
       <r>   11.4297    0.0000 </r>
       <r>   12.0388    0.0000 </r>
      </set>
      <set comment="kpoint 36">
       <r>    1.8856    1.0000 </r>
       <r>    2.6450    1.0000 </r>
       <r>    7.3936    0.0000 </r>
       <r>    8.9519    0.0000 </r>
       <r>   11.7629    0.0000 </r>
       <r>   13.3566    0.0000 </r>
      </set>
      <set comment="kpoint 37">
       <r>   -4.0981    1.0000 </r>
       <r>    9.8617    0.0000 </r>
       <r>   10.2020    0.0000 </r>
       <r>   13.1228    0.0000 </r>
       <r>   16.1725    0.0000 </r>
       <r>   17.6080    0.0000 </r>
      </set>
      <set comment="kpoint 38">
       <r>   -3.1563    1.0000 </r>
       <r>    7.1771    0.0000 </r>
       <r>    9.6013    0.0000 </r>
       <r>   12.3470    0.0000 </r>
       <r>   16.2269    0.0000 </r>
       <r>   17.8654    0.0000 </r>
      </set>
      <set comment="kpoint 39">
       <r>   -1.8662    1.0000 </r>
       <r>    4.5479    1.0000 </r>
       <r>    9.4440    0.0000 </r>
       <r>   11.4581    0.0000 </r>
       <r>   15.9153    0.0000 </r>
       <r>   17.7419    0.0000 </r>
      </set>
      <set comment="kpoint 40">
       <r>   -0.3675    1.0000 </r>
       <r>    2.3624    1.0000 </r>
       <r>    9.4924    0.0000 </r>
       <r>   10.8393    0.0000 </r>
       <r>   15.8596    0.0000 </r>
       <r>   17.1746    0.0000 </r>
      </set>
      <set comment="kpoint 41">
       <r>   -2.8391    1.0000 </r>
       <r>    8.3088    0.0000 </r>
       <r>    8.8265    0.0000 </r>
       <r>   10.6893    0.0000 </r>
       <r>   14.8096    0.0000 </r>
       <r>   15.4250    0.0000 </r>
      </set>
      <set comment="kpoint 42">
       <r>   -1.6659    1.0000 </r>
       <r>    5.9300    1.0000 </r>
       <r>    8.2059    0.0000 </r>
       <r>    9.6859    0.0000 </r>
       <r>   14.8315    0.0000 </r>
       <r>   17.0131    0.0000 </r>
      </set>
      <set comment="kpoint 43">
       <r>   -0.2043    1.0000 </r>
       <r>    3.6133    1.0000 </r>
       <r>    7.7380    0.0000 </r>
       <r>    9.2546    0.0000 </r>
       <r>   14.9233    0.0000 </r>
       <r>   18.7265    0.0000 </r>
      </set>
      <set comment="kpoint 44">
       <r>    0.6396    1.0000 </r>
       <r>    2.5564    1.0000 </r>
       <r>    7.2095    0.0000 </r>
       <r>    9.5379    0.0000 </r>
       <r>   15.3511    0.0000 </r>
       <r>   18.5586    0.0000 </r>
      </set>
      <set comment="kpoint 45">
       <r>   -0.7216    1.0000 </r>
       <r>    4.3737    1.0000 </r>
       <r>    6.8882    0.0000 </r>
       <r>   10.2761    0.0000 </r>
       <r>   16.0629    0.0000 </r>
       <r>   18.3241    0.0000 </r>
      </set>
      <set comment="kpoint 46">
       <r>   -2.1013    1.0000 </r>
       <r>    6.7296    0.0000 </r>
       <r>    7.0057    0.0000 </r>
       <r>   11.3105    0.0000 </r>
       <r>   16.8511    0.0000 </r>
       <r>   17.9515    0.0000 </r>
      </set>
      <set comment="kpoint 47">
       <r>   -1.1005    1.0000 </r>
       <r>    6.3814    0.5051 </r>
       <r>    7.8866    0.0000 </r>
       <r>    8.5576    0.0000 </r>
       <r>   13.8596    0.0000 </r>
       <r>   14.2097    0.0000 </r>
      </set>
      <set comment="kpoint 48">
       <r>    0.2668    1.0000 </r>
       <r>    4.8210    1.0000 </r>
       <r>    6.2845    0.9167 </r>
       <r>    8.2127    0.0000 </r>
       <r>   14.0574    0.0000 </r>
       <r>   16.3867    0.0000 </r>
      </set>
      <set comment="kpoint 49">
       <r>    1.5643    1.0000 </r>
       <r>    3.3938    1.0000 </r>
       <r>    5.1778    1.0000 </r>
       <r>    8.5317    0.0000 </r>
       <r>   14.4352    0.0000 </r>
       <r>   18.9978    0.0000 </r>
      </set>
      <set comment="kpoint 50">
       <r>    0.6929    1.0000 </r>
       <r>    4.5556    1.0000 </r>
       <r>    4.6009    1.0000 </r>
       <r>    9.2430    0.0000 </r>
       <r>   15.1462    0.0000 </r>
       <r>   20.4070    0.0000 </r>
      </set>
      <set comment="kpoint 51">
       <r>    1.0590    1.0000 </r>
       <r>    3.7561    1.0000 </r>
       <r>    7.4124    0.0000 </r>
       <r>    7.7641    0.0000 </r>
       <r>   13.3800    0.0000 </r>
       <r>   13.6551    0.0000 </r>
      </set>
      <set comment="kpoint 52">
       <r>    2.1481    1.0000 </r>
       <r>    3.1359    1.0000 </r>
       <r>    5.5248    1.0000 </r>
       <r>    7.8895    0.0000 </r>
       <r>   13.8025    0.0000 </r>
       <r>   16.1662    0.0000 </r>
      </set>
      <set comment="kpoint 53">
       <r>   -0.3994    1.0000 </r>
       <r>    5.5946    1.0000 </r>
       <r>    6.0451    1.0000 </r>
       <r>    8.4008    0.0000 </r>
       <r>   16.6839    0.0000 </r>
       <r>   17.0744    0.0000 </r>
      </set>
      <set comment="kpoint 54">
       <r>    1.0603    1.0000 </r>
       <r>    3.7362    1.0000 </r>
       <r>    5.9056    1.0000 </r>
       <r>    7.5979    0.0000 </r>
       <r>   16.8075    0.0000 </r>
       <r>   18.3706    0.0000 </r>
      </set>
      <set comment="kpoint 55">
       <r>    1.6405    1.0000 </r>
       <r>    4.1673    1.0000 </r>
       <r>    5.5621    1.0000 </r>
       <r>    6.5019    0.0453 </r>
       <r>   16.4162    0.0000 </r>
       <r>   16.6239    0.0000 </r>
      </set>
      <set comment="kpoint 56">
       <r>    2.2286    1.0000 </r>
       <r>    4.1124    1.0000 </r>
       <r>    4.4646    1.0000 </r>
       <r>    6.6100    0.0006 </r>
       <r>   16.8662    0.0000 </r>
       <r>   19.0391    0.0000 </r>
      </set>
     </set>
    </set>
   </array>
  </eigenvalues>
  <separator name="orbital magnetization" >
   <v name="MAGDIPOLOUT">      0.00000000      0.00000000      0.00000000</v>
  </separator>
  <dos>
   <i name="efermi">      6.38225919 </i>
   <total>
    <array>
     <dimension dim="1">gridpoints</dimension>
     <dimension dim="2">spin</dimension>
     <field>energy</field>
     <field>total</field>
     <field>integrated</field>
     <set>
      <set comment="spin 1">
       <r>    -6.6918     0.0000     0.0000 </r>
       <r>    -6.5949     0.0000     0.0000 </r>
       <r>    -6.4979     0.0000     0.0000 </r>
       <r>    -6.4009     0.0000     0.0000 </r>
       <r>    -6.3039     0.0000     0.0000 </r>
       <r>    -6.2070     0.0000     0.0000 </r>
       <r>    -6.1100     0.0000     0.0000 </r>
       <r>    -6.0130     0.0000     0.0000 </r>
       <r>    -5.9160     0.0000     0.0000 </r>
       <r>    -5.8191     0.0000     0.0000 </r>
       <r>    -5.7221     0.0000     0.0000 </r>
       <r>    -5.6251     0.0000     0.0000 </r>
       <r>    -5.5281     0.0002     0.0000 </r>
       <r>    -5.4312     0.0028     0.0003 </r>
       <r>    -5.3342     0.0095     0.0012 </r>
       <r>    -5.2372     0.0313     0.0042 </r>
       <r>    -5.1402     0.0920     0.0132 </r>
       <r>    -5.0433     0.0793     0.0209 </r>
       <r>    -4.9463     0.0369     0.0244 </r>
       <r>    -4.8493     0.0861     0.0328 </r>
       <r>    -4.7524     0.1145     0.0439 </r>
       <r>    -4.6554     0.2088     0.0641 </r>
       <r>    -4.5584     0.1995     0.0835 </r>
       <r>    -4.4614     0.0555     0.0889 </r>
       <r>    -4.3645     0.0378     0.0925 </r>
       <r>    -4.2675     0.0703     0.0994 </r>
       <r>    -4.1705     0.2078     0.1195 </r>
       <r>    -4.0735     0.3445     0.1529 </r>
       <r>    -3.9766     0.1690     0.1693 </r>
       <r>    -3.8796     0.1251     0.1814 </r>
       <r>    -3.7826     0.2030     0.2011 </r>
       <r>    -3.6856     0.2133     0.2218 </r>
       <r>    -3.5887     0.2476     0.2458 </r>
       <r>    -3.4917     0.0823     0.2538 </r>
       <r>    -3.3947     0.0461     0.2583 </r>
       <r>    -3.2977     0.1119     0.2691 </r>
       <r>    -3.2008     0.2543     0.2938 </r>
       <r>    -3.1038     0.5596     0.3481 </r>
       <r>    -3.0068     0.3656     0.3835 </r>
       <r>    -2.9098     0.1151     0.3947 </r>
       <r>    -2.8129     0.1901     0.4131 </r>
       <r>    -2.7159     0.2137     0.4339 </r>
       <r>    -2.6189     0.3218     0.4651 </r>
       <r>    -2.5219     0.2693     0.4912 </r>
       <r>    -2.4250     0.0857     0.4995 </r>
       <r>    -2.3280     0.0723     0.5065 </r>
       <r>    -2.2310     0.1546     0.5215 </r>
       <r>    -2.1340     0.4679     0.5668 </r>
       <r>    -2.0371     0.4287     0.6084 </r>
       <r>    -1.9401     0.1998     0.6278 </r>
       <r>    -1.8431     0.3753     0.6642 </r>
       <r>    -1.7461     0.4268     0.7056 </r>
       <r>    -1.6492     0.5665     0.7605 </r>
       <r>    -1.5522     0.3394     0.7934 </r>
       <r>    -1.4552     0.0496     0.7982 </r>
       <r>    -1.3582     0.0416     0.8023 </r>
       <r>    -1.2613     0.1761     0.8194 </r>
       <r>    -1.1643     0.4442     0.8624 </r>
       <r>    -1.0673     0.4019     0.9014 </r>
       <r>    -0.9703     0.1923     0.9201 </r>
       <r>    -0.8734     0.3104     0.9501 </r>
       <r>    -0.7764     0.4781     0.9965 </r>
       <r>    -0.6794     0.6088     1.0555 </r>
       <r>    -0.5824     0.3160     1.0862 </r>
       <r>    -0.4855     0.1142     1.0973 </r>
       <r>    -0.3885     0.4891     1.1447 </r>
       <r>    -0.2915     0.7768     1.2200 </r>
       <r>    -0.1946     0.6901     1.2869 </r>
       <r>    -0.0976     0.4710     1.3326 </r>
       <r>    -0.0006     0.0954     1.3419 </r>
       <r>     0.0964     0.0694     1.3486 </r>
       <r>     0.1933     0.2884     1.3766 </r>
       <r>     0.2903     0.4693     1.4221 </r>
       <r>     0.3873     0.2571     1.4470 </r>
       <r>     0.4843     0.0909     1.4558 </r>
       <r>     0.5812     0.4352     1.4980 </r>
       <r>     0.6782     0.8399     1.5795 </r>
       <r>     0.7752     0.4687     1.6249 </r>
       <r>     0.8722     0.1177     1.6363 </r>
       <r>     0.9691     0.1387     1.6498 </r>
       <r>     1.0661     0.4919     1.6975 </r>
       <r>     1.1631     0.4852     1.7445 </r>
       <r>     1.2601     0.2525     1.7690 </r>
       <r>     1.3570     0.1328     1.7819 </r>
       <r>     1.4540     0.0709     1.7888 </r>
       <r>     1.5510     0.3963     1.8272 </r>
       <r>     1.6480     0.6931     1.8944 </r>
       <r>     1.7449     0.3462     1.9280 </r>
       <r>     1.8419     0.2045     1.9478 </r>
       <r>     1.9389     0.2252     1.9697 </r>
       <r>     2.0359     0.1889     1.9880 </r>
       <r>     2.1328     0.3576     2.0227 </r>
       <r>     2.2298     0.4219     2.0636 </r>
       <r>     2.3268     0.4083     2.1032 </r>
       <r>     2.4238     0.4259     2.1445 </r>
       <r>     2.5207     0.3508     2.1785 </r>
       <r>     2.6177     0.4910     2.2261 </r>
       <r>     2.7147     0.4036     2.2652 </r>
       <r>     2.8117     0.1595     2.2807 </r>
       <r>     2.9086     0.0184     2.2825 </r>
       <r>     3.0056     0.0157     2.2840 </r>
       <r>     3.1026     0.1692     2.3004 </r>
       <r>     3.1996     0.4616     2.3452 </r>
       <r>     3.2965     0.5505     2.3986 </r>
       <r>     3.3935     0.6916     2.4656 </r>
       <r>     3.4905     0.6112     2.5249 </r>
       <r>     3.5875     0.4855     2.5720 </r>
       <r>     3.6844     0.7223     2.6420 </r>
       <r>     3.7814     0.8305     2.7226 </r>
       <r>     3.8784     0.6246     2.7831 </r>
       <r>     3.9753     0.2899     2.8112 </r>
       <r>     4.0723     0.2271     2.8333 </r>
       <r>     4.1693     0.4339     2.8753 </r>
       <r>     4.2663     0.3768     2.9119 </r>
       <r>     4.3632     0.4021     2.9509 </r>
       <r>     4.4602     0.6063     3.0097 </r>
       <r>     4.5572     0.8170     3.0889 </r>
       <r>     4.6542     0.6683     3.1537 </r>
       <r>     4.7511     0.2696     3.1798 </r>
       <r>     4.8481     0.3731     3.2160 </r>
       <r>     4.9451     0.2767     3.2429 </r>
       <r>     5.0421     0.3030     3.2722 </r>
       <r>     5.1390     0.5347     3.3241 </r>
       <r>     5.2360     0.5437     3.3768 </r>
       <r>     5.3330     0.3593     3.4117 </r>
       <r>     5.4300     0.2718     3.4380 </r>
       <r>     5.5269     0.6151     3.4977 </r>
       <r>     5.6239     0.9871     3.5934 </r>
       <r>     5.7209     0.4865     3.6406 </r>
       <r>     5.8179     0.3465     3.6742 </r>
       <r>     5.9148     0.7868     3.7505 </r>
       <r>     6.0118     0.9322     3.8409 </r>
       <r>     6.1088     0.4292     3.8825 </r>
       <r>     6.2058     0.1790     3.8998 </r>
       <r>     6.3027     0.4465     3.9431 </r>
       <r>     6.3997     0.7262     4.0136 </r>
       <r>     6.4967     0.7122     4.0826 </r>
       <r>     6.5937     0.4572     4.1270 </r>
       <r>     6.6906     0.3428     4.1602 </r>
       <r>     6.7876     0.3522     4.1944 </r>
       <r>     6.8846     0.4207     4.2352 </r>
       <r>     6.9816     0.4488     4.2787 </r>
       <r>     7.0785     0.3282     4.3105 </r>
       <r>     7.1755     0.5715     4.3659 </r>
       <r>     7.2725     0.7038     4.4342 </r>
       <r>     7.3695     0.3758     4.4706 </r>
       <r>     7.4664     0.5001     4.5191 </r>
       <r>     7.5634     0.6552     4.5827 </r>
       <r>     7.6604     0.7857     4.6588 </r>
       <r>     7.7574     0.9059     4.7467 </r>
       <r>     7.8543     0.8746     4.8315 </r>
       <r>     7.9513     0.5894     4.8887 </r>
       <r>     8.0483     0.2899     4.9168 </r>
       <r>     8.1452     0.5941     4.9744 </r>
       <r>     8.2422     1.1323     5.0842 </r>
       <r>     8.3392     0.8319     5.1649 </r>
       <r>     8.4362     0.5236     5.2156 </r>
       <r>     8.5331     0.6288     5.2766 </r>
       <r>     8.6301     0.6204     5.3368 </r>
       <r>     8.7271     0.3727     5.3729 </r>
       <r>     8.8241     0.4645     5.4180 </r>
       <r>     8.9210     0.6110     5.4772 </r>
       <r>     9.0180     0.3650     5.5126 </r>
       <r>     9.1150     0.2925     5.5410 </r>
       <r>     9.2120     0.6745     5.6064 </r>
       <r>     9.3089     0.9426     5.6978 </r>
       <r>     9.4059     1.0123     5.7960 </r>
       <r>     9.5029     1.2653     5.9187 </r>
       <r>     9.5999     1.2362     6.0385 </r>
       <r>     9.6968     0.9570     6.1313 </r>
       <r>     9.7938     0.7497     6.2040 </r>
       <r>     9.8908     0.6564     6.2677 </r>
       <r>     9.9878     0.3421     6.3009 </r>
       <r>    10.0847     0.2361     6.3238 </r>
       <r>    10.1817     0.3149     6.3543 </r>
       <r>    10.2787     0.6652     6.4188 </r>
       <r>    10.3757     0.5913     6.4762 </r>
       <r>    10.4726     0.1742     6.4931 </r>
       <r>    10.5696     0.1976     6.5122 </r>
       <r>    10.6666     0.7041     6.5805 </r>
       <r>    10.7636     1.0569     6.6830 </r>
       <r>    10.8605     1.0113     6.7811 </r>
       <r>    10.9575     0.7254     6.8514 </r>
       <r>    11.0545     0.5979     6.9094 </r>
       <r>    11.1515     0.3661     6.9449 </r>
       <r>    11.2484     0.2831     6.9723 </r>
       <r>    11.3454     0.4741     7.0183 </r>
       <r>    11.4424     0.7474     7.0908 </r>
       <r>    11.5394     0.8257     7.1709 </r>
       <r>    11.6363     0.6165     7.2307 </r>
       <r>    11.7333     0.5965     7.2885 </r>
       <r>    11.8303     0.4892     7.3359 </r>
       <r>    11.9273     0.4707     7.3816 </r>
       <r>    12.0242     0.6044     7.4402 </r>
       <r>    12.1212     0.6394     7.5022 </r>
       <r>    12.2182     0.3482     7.5360 </r>
       <r>    12.3152     0.4493     7.5796 </r>
       <r>    12.4121     0.6762     7.6451 </r>
       <r>    12.5091     0.6388     7.7071 </r>
       <r>    12.6061     0.6100     7.7662 </r>
       <r>    12.7030     0.5603     7.8206 </r>
       <r>    12.8000     0.4330     7.8625 </r>
       <r>    12.8970     0.5024     7.9113 </r>
       <r>    12.9940     0.4817     7.9580 </r>
       <r>    13.0909     0.4543     8.0020 </r>
       <r>    13.1879     0.5567     8.0560 </r>
       <r>    13.2849     0.5726     8.1115 </r>
       <r>    13.3819     0.6946     8.1789 </r>
       <r>    13.4788     0.4263     8.2202 </r>
       <r>    13.5758     0.2432     8.2438 </r>
       <r>    13.6728     0.4972     8.2920 </r>
       <r>    13.7698     0.5952     8.3498 </r>
       <r>    13.8667     0.6860     8.4163 </r>
       <r>    13.9637     0.6547     8.4798 </r>
       <r>    14.0607     0.6665     8.5444 </r>
       <r>    14.1577     0.6679     8.6092 </r>
       <r>    14.2546     0.6565     8.6728 </r>
       <r>    14.3516     0.5804     8.7291 </r>
       <r>    14.4486     0.7799     8.8047 </r>
       <r>    14.5456     0.6094     8.8638 </r>
       <r>    14.6425     0.1315     8.8766 </r>
       <r>    14.7395     0.2139     8.8973 </r>
       <r>    14.8365     0.6596     8.9613 </r>
       <r>    14.9335     0.8363     9.0424 </r>
       <r>    15.0304     0.5564     9.0964 </r>
       <r>    15.1274     0.2675     9.1223 </r>
       <r>    15.2244     0.2122     9.1429 </r>
       <r>    15.3214     0.3017     9.1721 </r>
       <r>    15.4183     0.5826     9.2286 </r>
       <r>    15.5153     0.4697     9.2742 </r>
       <r>    15.6123     0.1868     9.2923 </r>
       <r>    15.7093     0.2913     9.3205 </r>
       <r>    15.8062     0.5401     9.3729 </r>
       <r>    15.9032     0.7586     9.4465 </r>
       <r>    16.0002     0.7950     9.5236 </r>
       <r>    16.0972     1.1241     9.6326 </r>
       <r>    16.1941     1.4500     9.7732 </r>
       <r>    16.2911     1.1672     9.8864 </r>
       <r>    16.3881     0.8390     9.9677 </r>
       <r>    16.4851     0.7793    10.0433 </r>
       <r>    16.5820     0.5965    10.1012 </r>
       <r>    16.6790     0.6083    10.1602 </r>
       <r>    16.7760     0.5927    10.2176 </r>
       <r>    16.8729     0.8404    10.2991 </r>
       <r>    16.9699     0.7265    10.3696 </r>
       <r>    17.0669     0.7886    10.4461 </r>
       <r>    17.1639     0.8827    10.5317 </r>
       <r>    17.2608     0.7581    10.6052 </r>
       <r>    17.3578     0.4985    10.6535 </r>
       <r>    17.4548     0.5810    10.7099 </r>
       <r>    17.5518     0.6000    10.7680 </r>
       <r>    17.6487     0.5122    10.8177 </r>
       <r>    17.7457     0.7126    10.8868 </r>
       <r>    17.8427     0.9842    10.9823 </r>
       <r>    17.9397     0.9541    11.0748 </r>
       <r>    18.0366     0.5183    11.1250 </r>
       <r>    18.1336     0.2546    11.1497 </r>
       <r>    18.2306     0.4943    11.1977 </r>
       <r>    18.3276     0.8761    11.2826 </r>
       <r>    18.4245     0.8425    11.3643 </r>
       <r>    18.5215     0.4802    11.4109 </r>
       <r>    18.6185     0.4861    11.4580 </r>
       <r>    18.7155     0.5268    11.5091 </r>
       <r>    18.8124     0.8105    11.5877 </r>
       <r>    18.9094     0.7231    11.6578 </r>
       <r>    19.0064     0.7642    11.7320 </r>
       <r>    19.1034     0.8315    11.8126 </r>
       <r>    19.2003     0.5461    11.8655 </r>
       <r>    19.2973     0.3663    11.9011 </r>
       <r>    19.3943     0.0864    11.9094 </r>
       <r>    19.4913     0.0041    11.9098 </r>
       <r>    19.5882     0.0000    11.9098 </r>
       <r>    19.6852     0.0000    11.9098 </r>
       <r>    19.7822     0.0000    11.9098 </r>
       <r>    19.8792     0.0000    11.9098 </r>
       <r>    19.9761     0.0000    11.9098 </r>
       <r>    20.0731     0.0000    11.9098 </r>
       <r>    20.1701     0.0002    11.9099 </r>
       <r>    20.2671     0.0091    11.9107 </r>
       <r>    20.3640     0.1046    11.9209 </r>
       <r>    20.4610     0.2598    11.9461 </r>
       <r>    20.5580     0.1587    11.9615 </r>
       <r>    20.6550     0.0246    11.9639 </r>
       <r>    20.7519     0.0009    11.9639 </r>
       <r>    20.8489     0.0002    11.9640 </r>
       <r>    20.9459     0.0112    11.9650 </r>
       <r>    21.0429     0.1035    11.9751 </r>
       <r>    21.1398     0.1858    11.9931 </r>
       <r>    21.2368     0.0666    11.9996 </r>
       <r>    21.3338     0.0046    12.0000 </r>
       <r>    21.4307     0.0001    12.0000 </r>
       <r>    21.5277     0.0000    12.0000 </r>
       <r>    21.6247     0.0000    12.0000 </r>
       <r>    21.7217     0.0000    12.0000 </r>
       <r>    21.8186     0.0000    12.0000 </r>
       <r>    21.9156     0.0000    12.0000 </r>
       <r>    22.0126     0.0000    12.0000 </r>
       <r>    22.1096     0.0000    12.0000 </r>
       <r>    22.2065     0.0000    12.0000 </r>
       <r>    22.3035     0.0000    12.0000 </r>
       <r>    22.4005     0.0000    12.0000 </r>
      </set>
     </set>
    </array>
   </total>
  </dos>
 </calculation>
 <structure name="finalpos" >
  <crystal>
   <varray name="basis" >
    <v>       2.15000000       2.15000000       0.00000000 </v>
    <v>       0.00000000       2.15000000       2.15000000 </v>
    <v>       2.15000000       0.00000000       2.15000000 </v>
   </varray>
   <i name="volume">     19.87675000 </i>
   <varray name="rec_basis" >
    <v>       0.23255814       0.23255814      -0.23255814 </v>
    <v>      -0.23255814       0.23255814       0.23255814 </v>
    <v>       0.23255814      -0.23255814       0.23255814 </v>
   </varray>
  </crystal>
  <varray name="positions" >
   <v>       0.00000000       0.00000000       0.00000000 </v>
  </varray>
 </structure>
</modeling>
