    3    3   10    1
  0.1667104E+03  0.7937700E-09  0.7937700E-09  0.7937700E-09  0.5000000E-15
  1.000000000000000E-004
  CAR 
 unknown system                          
      8      1      8
 
  0.0000000E+00  0.0000000E+00  0.0000000E+00  0.1000000E+01
      1        -25.286673   1.000000
      2        -12.963753   1.000000
      3         -9.161968   1.000000
      4         -7.069893   1.000000
      5         -1.083628   0.000000
      6          1.064072   0.000000
      7          1.253712   0.000000
      8          1.730884   0.000000
