       N       E                     dE             d eps       ncg     rms          rms(c)
DAV:   1     0.716905029612E+02    0.71691E+02   -0.15754E+03    16   0.381E+02
DAV:   2     0.459579221516E+01   -0.67095E+02   -0.67095E+02    32   0.846E+01
DAV:   3    -0.154654547671E+02   -0.20061E+02   -0.20061E+02    24   0.759E+01
DAV:   4    -0.160413600755E+02   -0.57591E+00   -0.57591E+00    16   0.129E+01
DAV:   5    -0.160464169341E+02   -0.50569E-02   -0.50569E-02    24   0.130E+00    0.702E+00
DAV:   6    -0.144290019023E+02    0.16174E+01   -0.66020E+00    16   0.173E+01    0.311E+00
DAV:   7    -0.142923750468E+02    0.13663E+00   -0.17869E-01    24   0.265E+00    0.190E+00
DAV:   8    -0.142221874592E+02    0.70188E-01   -0.68011E-02    24   0.248E+00    0.192E-01
DAV:   9    -0.142255326904E+02   -0.33452E-02   -0.63803E-03    24   0.461E-01    0.140E-01
DAV:  10    -0.142354832787E+02   -0.99506E-02   -0.46373E-03    16   0.561E-01    0.583E-02
DAV:  11    -0.142422036706E+02   -0.67204E-02   -0.42882E-03    16   0.356E-01    0.901E-02
DAV:  12    -0.142431404414E+02   -0.93677E-03   -0.12233E-03    32   0.216E-01    0.200E-02
DAV:  13    -0.142441713243E+02   -0.10309E-02   -0.20333E-04    24   0.950E-02    0.135E-02
DAV:  14    -0.142442310874E+02   -0.59763E-04   -0.14217E-05    32   0.274E-02
   1 F= -.14244231E+02 E0= -.14244231E+02  d E =-.142442E+02
       N       E                     dE             d eps       ncg     rms          rms(c)
DAV:   1    -0.142456179077E+02   -0.14466E-02   -0.12412E+00    16   0.941E+00    0.719E-01
DAV:   2    -0.142353648578E+02    0.10253E-01   -0.55902E-02    24   0.165E+00    0.267E-01
DAV:   3    -0.142349947255E+02    0.37013E-03   -0.21625E-03    24   0.383E-01    0.126E-01
DAV:   4    -0.142351877520E+02   -0.19303E-03   -0.75973E-04    24   0.238E-01    0.360E-02
DAV:   5    -0.142351994760E+02   -0.11724E-04   -0.17852E-04    24   0.100E-01
   2 F= -.14235199E+02 E0= -.14235199E+02  d E =0.903161E-02
       N       E                     dE             d eps       ncg     rms          rms(c)
DAV:   1    -0.142595304995E+02   -0.24343E-01   -0.36738E-01    16   0.517E+00    0.365E-01
DAV:   2    -0.142568816994E+02    0.26488E-02   -0.13391E-02    24   0.824E-01    0.147E-01
DAV:   3    -0.142567750310E+02    0.10667E-03   -0.90965E-04    16   0.241E-01    0.650E-02
DAV:   4    -0.142568272933E+02   -0.52262E-04   -0.23219E-04    24   0.130E-01
   3 F= -.14256827E+02 E0= -.14256827E+02  d E =-.216278E-01
       N       E                     dE             d eps       ncg     rms          rms(c)
DAV:   1    -0.142569769068E+02   -0.20188E-03   -0.30619E-03    24   0.525E-01    0.242E-02
DAV:   2    -0.142569716471E+02    0.52597E-05   -0.64223E-05    24   0.645E-02
   4 F= -.14256972E+02 E0= -.14256972E+02  d E =-.144354E-03
