unknown system                          
           1
     7.937700    0.000000    0.000000
     0.000000    7.937700    0.000000
     0.000000    0.000000    7.937700
   O    H 
     1     2
Direct configuration=     1
   0.00000000  0.00000000  0.00000000
   0.07333333  0.90466667  0.00000000
   0.07333333  0.09533333  0.00000000
Direct configuration=     2
   0.00000000  0.00000000  0.00000000
   0.07625955  0.90087282  0.00000000
   0.07625955  0.09912718  0.00000000
Direct configuration=     3
   0.00000000  0.00000000  0.00000000
   0.07495041  0.90313820  0.00000000
   0.07495041  0.09686180  0.00000000
Direct configuration=     4
   0.00000000  0.00000000  0.00000000
   0.07500859  0.90340734  0.00000000
   0.07500859  0.09659266  0.00000000
